/*--------------------------------*- C++ -*----------------------------------*\
| =========                 |                                                 |
| \\      /  F ield         | OpenFOAM: The Open Source CFD Toolbox           |
|  \\    /   O peration     | Version:  v1806                                 |
|   \\  /    A nd           | Web:      www.OpenFOAM.com                      |
|    \\/     M anipulation  |                                                 |
\*---------------------------------------------------------------------------*/
FoamFile
{
    version     2.0;
    format      ascii;
    class       surfaceScalarField;
    location    "311";
    object      phi;
}
// * * * * * * * * * * * * * * * * * * * * * * * * * * * * * * * * * * * * * //

dimensions      [0 3 -1 0 0 0 0];
oriented        oriented;


internalField   nonuniform List<scalar> 
12640
(
-1.8617180055e-07
1.8639511508e-07
-3.59294279203e-07
1.73283485016e-07
-5.13829090784e-07
1.5465073716e-07
-6.44079210131e-07
1.3033317801e-07
-7.35624884875e-07
9.16255195765e-08
-7.85366752272e-07
4.98458458788e-08
-8.1429250557e-07
2.90259622564e-08
-8.71550823383e-07
5.73474668887e-08
-9.59544328329e-07
8.80687905309e-08
-1.04039051055e-06
8.09069755529e-08
-1.1140968062e-06
7.37449820896e-08
-1.19543938268e-06
8.13729717598e-08
-1.26708662148e-06
7.1668716804e-08
-1.32160352215e-06
5.45357068606e-08
-1.36796408267e-06
4.63789919974e-08
-1.42412285946e-06
5.61909290589e-08
-1.48236826094e-06
5.82749762656e-08
-1.52606653828e-06
4.37291599728e-08
-1.55186428594e-06
2.58069833423e-08
-1.56898231251e-06
1.71115043638e-08
-1.60201506822e-06
3.30137250803e-08
-1.65607051772e-06
5.40359405978e-08
-1.71678304746e-06
6.06873212372e-08
-1.77631821078e-06
5.9513204405e-08
-1.82977398599e-06
5.34307008352e-08
-1.8758676012e-06
4.60721531965e-08
-1.91869963571e-06
4.28052134211e-08
-1.95590726721e-06
3.71844315092e-08
-1.98498662915e-06
2.90481766948e-08
-2.00751558012e-06
2.25006068117e-08
-2.02911692703e-06
2.15631796029e-08
-2.04764641887e-06
1.8493825764e-08
-2.05828304101e-06
1.05987561203e-08
-2.06848913273e-06
1.01646079477e-08
-2.07747639193e-06
8.92568980127e-09
-2.08364882965e-06
6.11393094467e-09
-2.09262265895e-06
8.899199769e-09
-2.10049668997e-06
7.7855334243e-09
-2.10323925086e-06
2.63710473265e-09
-2.10660999261e-06
3.26534258704e-09
-2.12588418559e-06
1.91631912349e-08
-2.14721438544e-06
2.12312673153e-08
-2.14494688322e-06
-2.36617482558e-09
-2.12740894808e-06
-1.763776447e-08
-2.10322847436e-06
-2.42884943508e-08
-2.07135423716e-06
-3.19806506413e-08
-2.03177459228e-06
-3.96952613105e-08
-1.98256213346e-06
-4.93269236064e-08
-1.9246608721e-06
-5.80231983714e-08
-1.86840417518e-06
-5.63716968231e-08
-1.82421769026e-06
-4.43197416585e-08
-1.77405637783e-06
-5.02844098269e-08
-1.6796198526e-06
-9.45583741261e-08
-1.55350755803e-06
-1.26244398861e-07
-1.40697437393e-06
-1.46670853152e-07
-1.227714352e-06
-1.79398949572e-07
-1.04544258625e-06
-1.82458560281e-07
-8.68972296875e-07
-1.76709521321e-07
-6.67103972002e-07
-2.02157073555e-07
-4.39746580908e-07
-2.27717221797e-07
-1.9072665471e-07
-2.4946326666e-07
7.64047372346e-08
-2.67616720085e-07
4.05383754085e-07
-3.29492126202e-07
6.33971486028e-07
-2.28925992714e-07
7.6756135918e-07
-1.33811271536e-07
8.55378719591e-07
-8.79760329184e-08
9.16308181413e-07
-6.10832998513e-08
9.6490219036e-07
-4.87627058665e-08
1.00168044033e-06
-3.6972892084e-08
1.02051707457e-06
-1.90468903422e-08
1.01680467599e-06
3.4951553166e-09
9.86800741509e-07
2.97990322453e-08
9.27178537906e-07
5.94297853492e-08
8.2536626498e-07
1.01624238168e-07
7.11848668316e-07
1.13340825713e-07
5.90668952417e-07
1.2102088246e-07
4.92306206052e-07
9.81545683904e-08
3.58605501118e-07
1.3351315848e-07
2.21943694619e-07
1.36404543673e-07
2.2168535905e-07
-9.32956992942e-08
2.79757884151e-07
-2.16542786409e-07
2.96629473719e-07
-3.36428440394e-07
2.74604819683e-07
-4.64538762616e-07
2.5850045144e-07
-6.36208879418e-07
2.63379130074e-07
-7.73056962344e-07
1.86777871601e-07
-8.49959455506e-07
1.0602786605e-07
-9.17300885012e-07
1.24772151984e-07
-9.89436118199e-07
1.60278512919e-07
-1.07098316555e-06
1.62501601408e-07
-1.14942285949e-06
1.52227445501e-07
-1.21142888134e-06
1.43401492362e-07
-1.26676878556e-06
1.27038715823e-07
-1.32046928177e-06
1.08264078065e-07
-1.37203144788e-06
9.79874041252e-08
-1.43127778056e-06
1.15470779896e-07
-1.48056710067e-06
1.07605482103e-07
-1.49039619386e-06
5.35661391659e-08
-1.49374571898e-06
2.91589238213e-08
-1.51949933867e-06
4.28444254771e-08
-1.57033083241e-06
8.3826319593e-08
-1.64749167917e-06
1.31162328326e-07
-1.72367888087e-06
1.3685704823e-07
-1.77741401347e-06
1.13216288871e-07
-1.82569498652e-06
1.01694870378e-07
-1.87919133316e-06
9.95356170062e-08
-1.92334544705e-06
8.69422147392e-08
-1.95695809904e-06
7.076096784e-08
-1.98490943747e-06
5.69783083096e-08
-2.00804198648e-06
4.55914699198e-08
-2.02469087898e-06
3.8186044544e-08
-2.0365224368e-06
3.02866125612e-08
-2.04074022482e-06
1.47840961357e-08
-2.0460384107e-06
1.54070820062e-08
-2.0616897065e-06
2.45365642132e-08
-2.06854426264e-06
1.28863884611e-08
-2.0737966584e-06
1.40738194674e-08
-2.09174148972e-06
2.56280776529e-08
-2.11420482142e-06
2.50067926358e-08
-2.12305482614e-06
1.1995928946e-08
-2.07672602536e-06
-2.72578322132e-08
-2.00531089912e-06
-5.02867527111e-08
-1.97110635463e-06
-3.66566088324e-08
-1.96076721011e-06
-2.80883328472e-08
-1.95486183034e-06
-3.0293124751e-08
-1.9502724934e-06
-3.66921375878e-08
-1.94003377555e-06
-5.00414969826e-08
-1.92323981869e-06
-6.62483487057e-08
-1.89571070177e-06
-8.56651579425e-08
-1.84001629692e-06
-1.12195113044e-07
-1.74448149429e-06
-1.39963024643e-07
-1.64253264826e-06
-1.52355505798e-07
-1.59666751083e-06
-1.40544954029e-07
-1.5377751982e-06
-1.85282473567e-07
-1.42385168495e-06
-2.60740709314e-07
-1.30384903643e-06
-2.99585305622e-07
-1.15931892709e-06
-3.27202383105e-07
-9.71067021687e-07
-3.65230562385e-07
-7.57371241007e-07
-4.16179829187e-07
-5.08062829268e-07
-4.77432411634e-07
-2.12463885959e-07
-5.45480211175e-07
8.77380297527e-08
-5.68272534999e-07
4.00615127823e-07
-6.42847507193e-07
6.23769827469e-07
-4.52420313842e-07
7.45981070202e-07
-2.56227118248e-07
8.11090791735e-07
-1.53246230241e-07
8.78935498774e-07
-1.29078817526e-07
9.4956596442e-07
-1.19563587826e-07
9.99572741676e-07
-8.7170981029e-08
1.02071704306e-06
-4.04041870332e-08
1.00714685429e-06
1.68544679188e-08
9.62035070884e-07
7.47155465621e-08
9.10081244612e-07
1.11198853926e-07
8.62859717104e-07
1.48663114457e-07
7.90242752084e-07
1.85771605566e-07
7.00945699114e-07
2.1011670942e-07
5.78427196526e-07
2.20487498706e-07
4.43169266769e-07
2.68499212642e-07
2.39511793956e-07
3.39713562197e-07
4.61032656149e-07
-1.25956643628e-07
4.05848414352e-07
-1.82084398536e-07
3.52834997812e-07
-3.38841146911e-07
4.3143528114e-07
-5.27812476877e-07
4.47558792526e-07
-6.96125507407e-07
4.31779768078e-07
-7.75033546232e-07
2.65754072879e-07
-8.10327337997e-07
1.41378090893e-07
-8.84770696479e-07
1.992735515e-07
-9.73758353391e-07
2.49314457088e-07
-1.061901092e-06
2.50682866499e-07
-1.14322212653e-06
2.3357669048e-07
-1.20970596617e-06
2.09923743752e-07
-1.26563293424e-06
1.83014455774e-07
-1.32016342212e-06
1.62849316851e-07
-1.35374134164e-06
1.31615892851e-07
-1.30618043041e-06
6.79493109618e-08
-1.21981452017e-06
2.12495123216e-08
-1.20193351604e-06
3.56842766919e-08
-1.26348130735e-06
9.06913571831e-08
-1.40736258084e-06
1.8670420392e-07
-1.56493612624e-06
2.41374741175e-07
-1.65423251188e-06
2.20439792373e-07
-1.71027579778e-06
1.928755149e-07
-1.77658787274e-06
1.79508751181e-07
-1.83769966981e-06
1.62780973649e-07
-1.88240584885e-06
1.44221135133e-07
-1.91932589337e-06
1.23833760126e-07
-1.95210510897e-06
1.03516278252e-07
-1.97863879175e-06
8.34796410335e-08
-2.00118121555e-06
6.81074342614e-08
-2.01365644592e-06
5.06314894231e-08
-2.020763548e-06
3.73598078457e-08
-2.03068558918e-06
2.46738381287e-08
-2.01712161505e-06
1.80394557729e-09
-2.0122951714e-06
1.96401682646e-08
-2.04290303606e-06
4.34206325502e-08
-2.05346225527e-06
2.45424431779e-08
-2.06009414137e-06
3.21637980616e-08
-2.09629598524e-06
6.11010802375e-08
-2.13001132022e-06
4.56133669956e-08
-2.15198640116e-06
-5.38585136363e-09
-2.16071672149e-06
-4.16553223544e-08
-2.15041409935e-06
-4.70704282456e-08
-2.13116239206e-06
-4.74481515622e-08
-2.10728382392e-06
-5.42904395025e-08
-2.07735501139e-06
-6.67356485061e-08
-2.04273275414e-06
-8.478720247e-08
-2.00233515061e-06
-1.06763786879e-07
-1.95527032534e-06
-1.32852610055e-07
-1.90378926372e-06
-1.63789306068e-07
-1.84834113717e-06
-1.95529999015e-07
-1.77780617463e-06
-2.23010833771e-07
-1.66428776065e-06
-2.54191828102e-07
-1.53808805513e-06
-3.1161681852e-07
-1.43064676245e-06
-3.68339317743e-07
-1.30823718879e-06
-4.22179082184e-07
-1.14636545429e-06
-4.89297685713e-07
-9.47536398528e-07
-5.64320649388e-07
-7.17849809591e-07
-6.46173715842e-07
-4.61735242813e-07
-7.33888535533e-07
-1.95025903783e-07
-8.12584859827e-07
1.0995096951e-07
-8.73682300327e-07
3.50533611498e-07
-8.83846620048e-07
5.33315670965e-07
-6.35496754198e-07
6.73899147368e-07
-3.97012318418e-07
7.97190251216e-07
-2.7669527804e-07
8.82793995563e-07
-2.14834624504e-07
9.32911105884e-07
-1.6984026539e-07
9.61962803454e-07
-1.16406911792e-07
9.71127233579e-07
-4.97639861597e-08
9.71763664533e-07
1.60209850178e-08
9.79951951892e-07
6.63436134889e-08
9.7495308459e-07
1.16019208125e-07
9.26858630027e-07
1.96575933339e-07
8.29760392809e-07
2.82700334884e-07
7.07244012306e-07
3.32456300036e-07
5.79345091194e-07
3.48151343291e-07
4.53481975609e-07
3.94175954605e-07
2.04988132918e-07
5.8797812683e-07
6.65890306697e-07
-8.85284297762e-08
4.94412221987e-07
-1.09942751747e-07
3.74301737554e-07
-2.99489626955e-07
6.21063483762e-07
-4.46647769485e-07
5.94812083994e-07
-4.34330972008e-07
4.19525954746e-07
-3.58231343181e-07
1.89676399538e-07
-5.03125719212e-07
2.8629123743e-07
-7.54885803946e-07
4.51058059996e-07
-9.25435685123e-07
4.19895300291e-07
-1.03737264393e-06
3.62649334746e-07
-1.13234787391e-06
3.28594376288e-07
-1.20926291603e-06
2.86895568576e-07
-1.25299277711e-06
2.26807374426e-07
-1.22023570401e-06
1.30153142153e-07
-1.13342443361e-06
4.48434358463e-08
-1.09186008458e-06
2.63934499332e-08
-1.13480543484e-06
6.41887003586e-08
-1.25747630165e-06
1.58338328542e-07
-1.4278568083e-06
2.61053018797e-07
-1.54574809967e-06
3.04579200982e-07
-1.60132242234e-06
2.96934387108e-07
-1.66270303645e-06
2.81800472562e-07
-1.72975787282e-06
2.59912122517e-07
-1.78527466983e-06
2.35004117172e-07
-1.83275077302e-06
2.10239267764e-07
-1.87364352356e-06
1.85090217746e-07
-1.9117795266e-06
1.61949716963e-07
-1.94386054915e-06
1.35568402292e-07
-1.97167245381e-06
1.11267240808e-07
-1.98885440181e-06
8.52638691584e-08
-2.00471472694e-06
6.64661400647e-08
-2.00524674326e-06
3.78696441217e-08
-1.98931047817e-06
8.69875158581e-09
-2.01071461242e-06
2.31503820436e-08
-2.02351400381e-06
3.23734110269e-08
-2.03234680134e-06
5.2167258723e-08
-2.09001858704e-06
8.21181702116e-08
-2.13979173615e-06
8.1835762502e-08
-2.14906865407e-06
7.0283716681e-08
-2.14672701386e-06
4.31707782697e-08
-2.15225908897e-06
4.29840285667e-11
-2.15799482574e-06
-3.60304999326e-08
-2.15164123721e-06
-5.35321177088e-08
-2.13506482794e-06
-6.41378568321e-08
-2.11196001275e-06
-7.75065510703e-08
-2.083128265e-06
-9.56841630269e-08
-2.04922822353e-06
-1.18802006916e-07
-2.00980196509e-06
-1.46309106251e-07
-1.96432042135e-06
-1.78449212764e-07
-1.91272638603e-06
-2.1550025969e-07
-1.85229645767e-06
-2.56072772392e-07
-1.77558686588e-06
-2.99834640178e-07
-1.67767510209e-06
-3.52224720405e-07
-1.57092755957e-06
-4.18498149978e-07
-1.45000906069e-06
-4.89413174097e-07
-1.30313679303e-06
-5.69233569636e-07
-1.12575192261e-06
-6.66892820216e-07
-9.13902025645e-07
-7.76415707073e-07
-6.70011219429e-07
-8.90336608235e-07
-4.05599997168e-07
-9.98600764774e-07
-1.35911520807e-07
-1.08258148415e-06
1.11813740597e-07
-1.12174802654e-06
2.83984013804e-07
-1.05636031835e-06
5.01524457376e-07
-8.53325759454e-07
6.80643010016e-07
-5.76344148434e-07
7.80868798591e-07
-3.77078622289e-07
8.5527369577e-07
-2.8937966097e-07
9.17029504247e-07
-2.31751185845e-07
9.65917441593e-07
-1.65463666148e-07
1.00569422344e-06
-8.97350904208e-08
1.03684309618e-06
-1.53152272496e-08
1.03815534053e-06
6.48487295495e-08
9.767756582e-07
1.77243645101e-07
8.76629722432e-07
2.96590511158e-07
7.67541153463e-07
3.91625404917e-07
6.26035786209e-07
4.73797741197e-07
4.57253879108e-07
5.16832250528e-07
3.1819704722e-07
5.33090327645e-07
1.66489221988e-07
7.39538120044e-07
8.32342976266e-07
-1.1072353325e-08
5.05554116048e-07
-1.00194935875e-07
4.63465479752e-07
-2.55847813724e-07
7.76799608045e-07
-3.47525583807e-07
6.86576935607e-07
-3.05324312622e-07
3.7736237334e-07
-3.78350616661e-07
2.62711414069e-07
-5.83913687319e-07
4.91863135134e-07
-7.48202554734e-07
6.15372584518e-07
-8.75079619153e-07
5.46797003472e-07
-9.92978950329e-07
4.80588879279e-07
-1.10068143906e-06
4.36359304953e-07
-1.13952044087e-06
3.25795685572e-07
-1.08418451088e-06
1.71528065192e-07
-1.03391205122e-06
7.99117295172e-08
-1.06338727493e-06
7.4322783898e-08
-1.15768693984e-06
1.20684511778e-07
-1.30239492046e-06
2.08881321347e-07
-1.4399482643e-06
2.9587494803e-07
-1.5074091069e-06
3.28501932923e-07
-1.54174632624e-06
3.38906043284e-07
-1.60070341021e-06
3.55878854622e-07
-1.66788649037e-06
3.48969368673e-07
-1.7282518952e-06
3.20261550848e-07
-1.7795507558e-06
2.86289210484e-07
-1.82428935085e-06
2.54960117766e-07
-1.86709523172e-06
2.27881838434e-07
-1.90016219419e-06
1.94990857992e-07
-1.93282282182e-06
1.68208557136e-07
-1.95411329234e-06
1.32539068973e-07
-1.97221765624e-06
1.03350616582e-07
-1.97120281524e-06
6.54311057926e-08
-1.98014854529e-06
4.67818547896e-08
-2.01724903041e-06
4.57520623065e-08
-2.01920338742e-06
2.50373808991e-08
-2.04445013457e-06
5.7535566136e-08
-2.09820329614e-06
1.05828869385e-07
-2.13131224563e-06
1.15134172089e-07
-2.15004763675e-06
1.0048101038e-07
-2.15583756103e-06
7.59791130145e-08
-2.1560924299e-06
4.3327151896e-08
-2.15942847566e-06
3.2728205306e-09
-2.16212837854e-06
-3.34394637376e-08
-2.1564310464e-06
-5.93424012928e-08
-2.14150619832e-06
-7.91748023732e-08
-2.11952918699e-06
-9.95977906601e-08
-2.09178045969e-06
-1.23545953427e-07
-2.05880692186e-06
-1.51890743739e-07
-2.02036791721e-06
-1.84862198719e-07
-1.97582910165e-06
-2.23103614176e-07
-1.92404701315e-06
-2.6739401248e-07
-1.8620628767e-06
-3.18167550873e-07
-1.7853301732e-06
-3.76680517818e-07
-1.69187942289e-06
-4.45788638465e-07
-1.58378116521e-06
-5.26729229178e-07
-1.45491401925e-06
-6.18427931486e-07
-1.29676392089e-06
-7.27556464994e-07
-1.10507737889e-06
-8.58782585476e-07
-8.78120827979e-07
-1.00359424904e-06
-6.22151137273e-07
-1.14654280043e-06
-3.54320261331e-07
-1.26666643026e-06
-9.7284913123e-08
-1.33987888946e-06
1.15868191603e-07
-1.33517953941e-06
2.62587507959e-07
-1.20335994178e-06
5.06609734847e-07
-1.09762734344e-06
6.98435066623e-07
-7.68386351646e-07
8.07773310478e-07
-4.86579610147e-07
8.74438588306e-07
-3.56195669049e-07
9.27084873713e-07
-2.84543563968e-07
9.77538492766e-07
-2.16089928522e-07
1.03164434183e-06
-1.44005467195e-07
1.06354768408e-06
-4.74035845239e-08
1.02615647256e-06
1.02112514064e-07
9.4415682896e-07
2.59134042048e-07
8.5188093399e-07
3.88727558019e-07
7.3313795889e-07
5.10271531044e-07
5.78305337965e-07
6.28518226425e-07
4.43877546853e-07
6.51140240952e-07
3.01317323904e-07
6.75616320205e-07
1.36990047866e-07
9.03805569085e-07
9.69278568439e-07
-3.70550834975e-09
5.09256433769e-07
-1.32093272079e-07
5.9189450617e-07
-2.11691989843e-07
8.56471199688e-07
-2.5045878924e-07
7.25394220709e-07
-2.33951655398e-07
3.60873442975e-07
-4.31386966944e-07
4.60156827528e-07
-6.43743628283e-07
7.04240065882e-07
-7.36316920957e-07
7.07963786178e-07
-8.36163891323e-07
6.46683914615e-07
-9.24578853559e-07
5.69062322041e-07
-9.51696329834e-07
4.63536227687e-07
-8.80384098791e-07
2.54533288037e-07
-8.61520282699e-07
1.52686974929e-07
-9.26778369193e-07
1.45171513306e-07
-1.04438378449e-06
1.91916693116e-07
-1.21573692329e-06
2.92018968466e-07
-1.37316606118e-06
3.66295199263e-07
-1.43851073264e-06
3.61213984028e-07
-1.46840257838e-06
3.58388544175e-07
-1.53641845227e-06
4.06914826866e-07
-1.60766471904e-06
4.2711669533e-07
-1.66516602816e-06
4.06460869271e-07
-1.7190758248e-06
3.74161064611e-07
-1.77286833939e-06
3.40067895021e-07
-1.81981004989e-06
3.01891265168e-07
-1.84426169525e-06
2.52315766101e-07
-1.87971790817e-06
2.30433149907e-07
-1.90467648684e-06
1.93151801403e-07
-1.92729764348e-06
1.55141945987e-07
-1.92168448555e-06
9.77197850333e-08
-1.92259500223e-06
6.63183509219e-08
-1.93858929623e-06
6.273564994e-08
-1.95047210816e-06
5.75742220826e-08
-2.022193144e-06
9.66799713862e-08
-2.0913539415e-06
1.26606173332e-07
-2.1287575302e-06
1.43144178519e-07
-2.14786930496e-06
1.34160853982e-07
-2.15846282428e-06
1.10988993944e-07
-2.1634796944e-06
8.09070906441e-08
-2.16580776482e-06
4.55580841789e-08
-2.1684015346e-06
5.76121009203e-09
-2.16915458932e-06
-3.27981446404e-08
-2.16337241736e-06
-6.52380028231e-08
-2.14957260972e-06
-9.30889021806e-08
-2.12878684433e-06
-1.20497312209e-07
-2.10214100326e-06
-1.50305956768e-07
-2.07018702232e-06
-1.83958401351e-07
-2.03273156809e-06
-2.22432206412e-07
-1.98901350184e-06
-2.66934701355e-07
-1.9376092406e-06
-3.18912140407e-07
-1.875981574e-06
-3.79908276776e-07
-1.80093482821e-06
-4.51838037693e-07
-1.70999059214e-06
-5.3685988508e-07
-1.60011803696e-06
-6.36724439942e-07
-1.46397535467e-06
-7.54719067659e-07
-1.29432616342e-06
-8.97373488358e-07
-1.08860457661e-06
-1.06468003665e-06
-8.49602018315e-07
-1.24278582357e-06
-5.8719670649e-07
-1.40913056391e-06
-3.20341997751e-07
-1.5337239401e-06
-7.85851318466e-08
-1.58183939035e-06
1.11006092437e-07
-1.52499035419e-06
2.89810232311e-07
-1.3824133995e-06
4.98155121186e-07
-1.30622529748e-06
6.68131617399e-07
-9.38561547825e-07
7.84645877944e-07
-6.03247553658e-07
8.74954835754e-07
-4.4664676991e-07
9.47773289364e-07
-3.57530838644e-07
1.01781606544e-06
-2.86274255259e-07
1.07537793393e-06
-2.01764975756e-07
1.06938182133e-06
-4.15163467441e-08
1.01147363993e-06
1.59878863809e-07
9.44494397355e-07
3.26006482044e-07
8.57918286484e-07
4.75256175632e-07
7.34845846791e-07
6.33209378683e-07
5.97009085048e-07
7.66311728317e-07
4.51621602695e-07
7.96534732976e-07
3.0134896837e-07
8.25821109685e-07
1.50090712847e-07
1.05499329581e-06
1.11933881716e-06
-4.80766436341e-08
5.57374230489e-07
-2.06689534145e-07
7.50548629954e-07
-2.74676654316e-07
9.2453030232e-07
-2.23725117393e-07
6.74487405173e-07
-2.89385633882e-07
4.26544021513e-07
-5.23451474461e-07
6.94235833238e-07
-6.41765126802e-07
8.22570235672e-07
-7.16599012174e-07
7.82836360659e-07
-7.75700908792e-07
7.0582679678e-07
-8.624795843e-07
6.55903736491e-07
-8.28189964182e-07
4.29300890711e-07
-7.89084241944e-07
2.15451976932e-07
-8.4953769312e-07
2.13144706857e-07
-9.42793056703e-07
2.38411430554e-07
-1.10275341793e-06
3.51856084553e-07
-1.27276678392e-06
4.62022509291e-07
-1.34161211534e-06
4.35139102194e-07
-1.36956049372e-06
3.89159236661e-07
-1.45228424459e-06
4.41106806884e-07
-1.5377873719e-06
4.92413756456e-07
-1.60164656752e-06
4.90971635741e-07
-1.65932539023e-06
4.6413462181e-07
-1.71449808605e-06
4.29322807375e-07
-1.75669828939e-06
3.8226154006e-07
-1.78535354136e-06
3.30538239989e-07
-1.81617233884e-06
2.8312265254e-07
-1.83235558902e-06
2.46601876036e-07
-1.86077573795e-06
2.21554426275e-07
-1.86883264471e-06
1.63184625982e-07
-1.86544073607e-06
9.43089553491e-08
-1.88878853893e-06
8.96303167274e-08
-1.92405283463e-06
9.7952692753e-08
-1.98230489034e-06
1.1575733698e-07
-2.04644060789e-06
1.60732663664e-07
-2.11363908975e-06
1.93721786399e-07
-2.14462817011e-06
1.74053485244e-07
-2.15845015329e-06
1.47903605332e-07
-2.16721401807e-06
1.19671058322e-07
-2.17328588269e-06
8.68907129564e-08
-2.17703278739e-06
4.92083429965e-08
-2.17932377329e-06
7.94727355777e-09
-2.17888399459e-06
-3.33487043246e-08
-2.1727873809e-06
-7.14489087671e-08
-2.15962235114e-06
-1.0636966667e-07
-2.1397914376e-06
-1.40444491964e-07
-2.11413444042e-06
-1.76079207541e-07
-2.08311488571e-06
-2.15094702067e-07
-2.04659018464e-06
-2.59072654939e-07
-2.00390269404e-06
-3.09740701852e-07
-1.95379901226e-06
-3.69132273394e-07
-1.89417968538e-06
-4.3964592228e-07
-1.82209056834e-06
-5.24055861316e-07
-1.73359658208e-06
-6.25460361066e-07
-1.62270926816e-06
-7.47748687306e-07
-1.48109503171e-06
-8.96466490075e-07
-1.30237310498e-06
-1.07622851239e-06
-1.08586872284e-06
-1.28133238314e-06
-8.36847053437e-07
-1.49193722422e-06
-5.66260156761e-07
-1.67987650687e-06
-2.93432787537e-07
-1.80669162833e-06
-5.45922280126e-08
-1.82085041591e-06
1.41261661537e-07
-1.72104416683e-06
3.42259996574e-07
-1.58362253082e-06
4.55412861916e-07
-1.41959318974e-06
6.45370139325e-07
-1.12869499613e-06
7.8565449194e-07
-7.4368453845e-07
9.14408879762e-07
-5.75582971529e-07
1.01991324809e-06
-4.63189703055e-07
1.09157121642e-06
-3.58163076437e-07
1.10865338198e-06
-2.18946763758e-07
1.07413769335e-06
-7.22967897768e-09
1.03380458081e-06
2.00139764173e-07
9.84116900508e-07
3.7564960791e-07
9.00168768009e-07
5.59063616899e-07
7.76952609084e-07
7.56486958486e-07
6.54414042865e-07
8.88820305049e-07
4.86146620521e-07
9.6475375417e-07
3.09982064064e-07
1.00199560128e-06
1.68941322416e-07
1.19595742039e-06
1.28820669284e-06
-9.16353094591e-08
6.4900541861e-07
-2.3641708628e-07
8.95374603223e-07
-2.58839070695e-07
9.46982986516e-07
-1.6473151938e-07
5.80396671202e-07
-3.33654558981e-07
5.95479187812e-07
-5.34308946376e-07
8.94907300677e-07
-6.13873342158e-07
9.02167785234e-07
-6.95903305135e-07
8.64902515826e-07
-6.96383958795e-07
7.06368909606e-07
-7.14830674303e-07
6.74394586137e-07
-6.72153539953e-07
3.86651405161e-07
-7.61890222309e-07
3.05194361595e-07
-8.4430624307e-07
2.95549377224e-07
-9.80524162893e-07
3.74613996805e-07
-1.15186175333e-06
5.23181133266e-07
-1.23601490588e-06
5.46171684747e-07
-1.26300096416e-06
4.6212696231e-07
-1.35087903486e-06
4.77035725541e-07
-1.4538049368e-06
5.44029902617e-07
-1.52572572559e-06
5.64333241434e-07
-1.58342442828e-06
5.48669111314e-07
-1.63917828283e-06
5.19880820898e-07
-1.70002435683e-06
4.90167222228e-07
-1.7561451536e-06
4.38380769364e-07
-1.77570197133e-06
3.50085165888e-07
-1.81073433135e-06
3.18148270032e-07
-1.83033476363e-06
2.6618994416e-07
-1.81719722254e-06
2.08402784461e-07
-1.8251802122e-06
1.71147725437e-07
-1.89729527821e-06
1.66395258293e-07
-1.93787440456e-06
1.3017216795e-07
-1.94066359765e-06
1.00681088985e-07
-2.00931109989e-06
1.84333203918e-07
-2.09339347821e-06
2.44737336953e-07
-2.13021949977e-06
2.30472447576e-07
-2.15283986969e-06
1.96600324231e-07
-2.1675592718e-06
1.62547931302e-07
-2.17768834954e-06
1.2972099939e-07
-2.18509320487e-06
9.42093809237e-08
-2.18998015547e-06
5.40006093542e-08
-2.19225677984e-06
1.01202081729e-08
-2.19105581443e-06
-3.46599072469e-08
-2.18464393095e-06
-7.79755441878e-08
-2.17183353189e-06
-1.19296871614e-07
-2.15265107181e-06
-1.59745485952e-07
-2.12768762858e-06
-2.01162379902e-07
-2.0973559785e-06
-2.45547017139e-07
-2.06166852004e-06
-2.94883565136e-07
-2.02029791644e-06
-3.51233226165e-07
-1.97244825386e-06
-4.17111263502e-07
-1.9164177171e-06
-4.95810883683e-07
-1.84903847742e-06
-5.91550056521e-07
-1.76496566137e-06
-7.09685030475e-07
-1.65602672305e-06
-8.56796262717e-07
-1.51292409847e-06
-1.03968646938e-06
-1.32946663619e-06
-1.25982224072e-06
-1.1052307104e-06
-1.50566465174e-06
-8.4360113494e-07
-1.75371272689e-06
-5.51152887679e-07
-1.97241521629e-06
-2.54381031012e-07
-2.10362524238e-06
-1.56355690253e-09
-2.07382699388e-06
2.01278459738e-07
-1.92406148083e-06
3.62440501719e-07
-1.74497114233e-06
4.83128721394e-07
-1.54046813077e-06
6.5518002522e-07
-1.30094481554e-06
8.26104707265e-07
-9.14791155005e-07
9.59327319351e-07
-7.08971904391e-07
1.06702390131e-06
-5.71126673841e-07
1.12282932774e-06
-4.1407310744e-07
1.12227847861e-06
-2.18680616897e-07
1.10358835277e-06
1.14584188443e-08
1.08988065343e-06
2.13700966212e-07
1.05707455427e-06
4.08312635431e-07
9.81063156773e-07
6.35172415575e-07
8.66716481853e-07
8.70665176462e-07
7.26805685575e-07
1.0287589479e-06
5.43942390825e-07
1.14764384478e-06
3.27243577033e-07
1.21856531333e-06
1.67477978325e-07
1.3556129945e-06
1.45565350665e-06
-1.23331185744e-07
7.7238204197e-07
-2.34253093599e-07
1.00633681508e-06
-2.07030970673e-07
9.19804829133e-07
-2.1414304639e-07
5.87522568888e-07
-4.14555569963e-07
7.95908479005e-07
-5.01573581832e-07
9.8195293433e-07
-5.75392358825e-07
9.76029412629e-07
-6.50299361192e-07
9.39856761321e-07
-6.65635879693e-07
7.21741102383e-07
-6.85211913098e-07
6.94014741201e-07
-6.93203473292e-07
3.94650734555e-07
-7.69507432284e-07
3.81495040649e-07
-8.68195392362e-07
3.9422065849e-07
-1.02742318337e-06
5.33822130053e-07
-1.17485402618e-06
6.70611754265e-07
-1.21631794548e-06
5.87644057494e-07
-1.25816261293e-06
5.03973003642e-07
-1.35033222342e-06
5.69202581816e-07
-1.44013191728e-06
6.33828512671e-07
-1.51025566089e-06
6.34455783167e-07
-1.5678869649e-06
6.06293389622e-07
-1.61246493539e-06
5.64460545483e-07
-1.65000684785e-06
5.27715444779e-07
-1.68939015432e-06
4.77763454326e-07
-1.72285105156e-06
3.83548228009e-07
-1.74267904259e-06
3.37968686637e-07
-1.78587853792e-06
3.09376419344e-07
-1.83412087978e-06
2.56629982356e-07
-1.87264840609e-06
2.09657713411e-07
-1.89665475222e-06
1.90371245853e-07
-1.9373416243e-06
1.70806428172e-07
-2.03164150362e-06
1.9491306876e-07
-2.08315499164e-06
2.35770609873e-07
-2.11462117239e-06
2.76130776223e-07
-2.14086069348e-06
2.56644900948e-07
-2.16221338591e-06
2.17885791339e-07
-2.17856253289e-06
1.78826135464e-07
-2.19026159333e-06
1.41342742846e-07
-2.19868039728e-06
1.02543366593e-07
-2.20443660142e-06
5.96629200505e-08
-2.20709607359e-06
1.26778756968e-08
-2.20565798798e-06
-3.620723562e-08
-2.19899448494e-06
-8.47534338147e-08
-2.18631934455e-06
-1.32091237964e-07
-2.16746183711e-06
-1.78725721534e-07
-2.1427452356e-06
-2.26005675859e-07
-2.11264973878e-06
-2.75772006749e-07
-2.07755247446e-06
-3.30110470844e-07
-2.03768756709e-06
-3.91239876387e-07
-1.99294935469e-06
-4.61988072173e-07
-1.94224877469e-06
-5.46646475239e-07
-1.88242256032e-06
-6.51547519624e-07
-1.80693288583e-06
-7.85266197604e-07
-1.70581924673e-06
-9.58031785814e-07
-1.56784650134e-06
-1.17777570015e-06
-1.38457453346e-06
-1.44314952042e-06
-1.15150796526e-06
-1.7388736493e-06
-8.63880971713e-07
-2.04137123777e-06
-5.28065998163e-07
-2.30841167483e-06
-1.99752681553e-07
-2.43204689394e-06
4.51309114326e-08
-2.3188776198e-06
2.28088239696e-07
-2.10717701434e-06
3.94968281203e-07
-1.91201332459e-06
5.56326855437e-07
-1.70199520975e-06
6.9491036928e-07
-1.43971200603e-06
8.82915888442e-07
-1.10301324974e-06
1.04090443311e-06
-8.67203487362e-07
1.13681363499e-06
-6.67168895135e-07
1.17144107837e-06
-4.49025061054e-07
1.16058200397e-06
-2.07769912067e-07
1.15988160619e-06
1.18204810259e-08
1.17208233302e-06
2.01410368153e-07
1.16391728359e-06
4.16511299981e-07
1.10049353316e-06
6.9827179955e-07
9.79147024198e-07
9.92120457294e-07
8.02126062112e-07
1.20565671285e-06
5.94446109397e-07
1.35517423363e-06
3.51850240584e-07
1.46112011958e-06
1.5770349215e-07
1.5496629669e-06
1.61324949444e-06
-1.47391682183e-07
9.19764132848e-07
-2.47151500579e-07
1.10611798698e-06
-1.89973825965e-07
8.62645893006e-07
-2.64368416184e-07
6.61938337777e-07
-4.40366013906e-07
9.7193542002e-07
-4.63339769652e-07
1.00497096001e-06
-5.28362805995e-07
1.04108573537e-06
-5.48946075746e-07
9.60485017075e-07
-6.06632990508e-07
7.79457437043e-07
-5.94413858264e-07
6.818097376e-07
-6.70898310701e-07
4.71138276397e-07
-7.67423655606e-07
4.7800511116e-07
-8.79536593682e-07
5.06321230821e-07
-1.02786770004e-06
6.82148667445e-07
-1.11005461099e-06
7.5279974574e-07
-1.13073668205e-06
6.08331402936e-07
-1.2230858108e-06
5.96323060951e-07
-1.32822513509e-06
6.74340604734e-07
-1.4123517041e-06
7.1795400133e-07
-1.48757483833e-06
7.09675600338e-07
-1.55527519103e-06
6.74000542348e-07
-1.6131429757e-06
6.2233497316e-07
-1.63975426172e-06
5.54329092588e-07
-1.65595742621e-06
4.9397353125e-07
-1.71566084091e-06
4.432500369e-07
-1.73942330087e-06
3.61721924191e-07
-1.72770546885e-06
2.97654724125e-07
-1.74206955468e-06
2.70983559206e-07
-1.79735812159e-06
2.64920720928e-07
-1.88196824349e-06
2.749434344e-07
-1.95580046222e-06
2.44581929837e-07
-2.01724563613e-06
2.56286061129e-07
-2.09423410732e-06
3.12683174011e-07
-2.1298930915e-06
3.11725456764e-07
-2.15316302224e-06
2.79854063809e-07
-2.17444036159e-06
2.3909971427e-07
-2.1923090295e-06
1.96625847897e-07
-2.20548507668e-06
1.54443756484e-07
-2.21463013335e-06
1.11605590047e-07
-2.22083059726e-06
6.57728660123e-08
-2.22388796809e-06
1.56358999145e-08
-2.22260272733e-06
-3.75990972063e-08
-2.21587606278e-06
-9.15940983333e-08
-2.20312999314e-06
-1.44957391623e-07
-2.18422113666e-06
-1.97761849743e-07
-2.15930437236e-06
-2.5105558589e-07
-2.12885438938e-06
-3.0635948993e-07
-2.09374838912e-06
-3.65366917198e-07
-2.05513735817e-06
-4.29992405822e-07
-2.01408767423e-06
-5.03197955442e-07
-1.97068772157e-06
-5.9022331657e-07
-1.92242880603e-06
-6.99912218679e-07
-1.8624261239e-06
-8.45437065783e-07
-1.77839410894e-06
-1.04215338592e-06
-1.65496682783e-06
-1.30125133307e-06
-1.47678068947e-06
-1.62148521085e-06
-1.22715978218e-06
-1.98851729925e-06
-8.8649315857e-07
-2.38227166972e-06
-4.87606943333e-07
-2.70736327205e-06
-1.52954905815e-07
-2.76689219593e-06
3.94165541247e-08
-2.51140022766e-06
2.08127685274e-07
-2.27605074401e-06
4.19682564711e-07
-2.12372570013e-06
6.49663037392e-07
-1.93212677014e-06
8.70451813555e-07
-1.66068807744e-06
1.10002556379e-06
-1.3328256419e-06
1.20402898005e-06
-9.71406825042e-07
1.19924205698e-06
-6.62722681431e-07
1.20627238854e-06
-4.56005838186e-07
1.2017597191e-06
-2.03675967239e-07
1.21926087151e-06
-5.55674974169e-09
1.26324081508e-06
1.57286556926e-07
1.30724905928e-06
3.72131306601e-07
1.27321559864e-06