/*--------------------------------*- C++ -*----------------------------------*\
| =========                 |                                                 |
| \\      /  F ield         | OpenFOAM: The Open Source CFD Toolbox           |
|  \\    /   O peration     | Version:  v1806                                 |
|   \\  /    A nd           | Web:      www.OpenFOAM.com                      |
|    \\/     M anipulation  |                                                 |
\*---------------------------------------------------------------------------*/
FoamFile
{
    version     2.0;
    format      ascii;
    class       volVectorField;
    location    "311";
    object      Ua;
}
// * * * * * * * * * * * * * * * * * * * * * * * * * * * * * * * * * * * * * //

dimensions      [0 1 -1 0 0 0 0];


internalField   nonuniform List<vector> 
6400
(
(5.42985261697e-05 7.50553227879e-05 0)
(0.00015117336686 5.95338839413e-05 0)
(0.000222582110529 5.02918205615e-05 0)
(0.00030536094358 4.66395399559e-05 0)
(0.000365316610581 3.03758555995e-05 0)
(0.000407694726595 1.64832343721e-05 0)
(0.000425509630552 1.10826411271e-05 0)
(0.000437472609349 1.87362415094e-05 0)
(0.000494000494997 2.91662489837e-05 0)
(0.000555023619368 2.86942512368e-05 0)
(0.000572704254988 2.56137018575e-05 0)
(0.000629805759493 2.93485261667e-05 0)
(0.000681091501637 2.80466261294e-05 0)
(0.000723498426108 2.37601681804e-05 0)
(0.000753316982635 2.1486054152e-05 0)
(0.000785935687272 2.44438931873e-05 0)
(0.000830082052122 2.57770767928e-05 0)
(0.000867647461762 2.3308537695e-05 0)
(0.000893428160257 1.86942932675e-05 0)
(0.000915347868661 1.58990144662e-05 0)
(0.000945569524832 2.12488045611e-05 0)
(0.000987576182037 2.81913086467e-05 0)
(0.00103626337893 3.09249309303e-05 0)
(0.00108212437167 3.17028797385e-05 0)
(0.00112705386633 3.04425186855e-05 0)
(0.00117038142438 2.82330424385e-05 0)
(0.00121502155752 2.81251202113e-05 0)
(0.00125788581393 2.74052874518e-05 0)
(0.0012955006336 2.54589302524e-05 0)
(0.00132865699685 2.38454408354e-05 0)
(0.00135714723189 2.4218352096e-05 0)
(0.00138892044106 2.4017745251e-05 0)
(0.00142203143478 2.23800891854e-05 0)
(0.001451227856 2.32968959428e-05 0)
(0.00147932720935 2.35067808789e-05 0)
(0.0015166093929 2.4163911245e-05 0)
(0.00155413253787 2.64483770912e-05 0)
(0.00157121338575 2.56419400845e-05 0)
(0.00160586203546 2.42740073392e-05 0)
(0.00165292648751 2.66339068473e-05 0)
(0.00169780635285 3.68888135697e-05 0)
(0.00173552380733 3.95989582495e-05 0)
(0.00176974529783 2.74485307713e-05 0)
(0.00179669513146 1.94987771592e-05 0)
(0.00181445688457 1.64963972437e-05 0)
(0.0018276868975 1.32693680416e-05 0)
(0.00183543951015 1.04091862947e-05 0)
(0.00183574849591 6.54800898861e-06 0)
(0.0018296472429 3.59171604052e-06 0)
(0.00181920935773 7.09419396882e-06 0)
(0.00181250498636 1.73501342615e-05 0)
(0.00183499734292 1.75016305893e-05 0)
(0.00182258156426 -9.0711790236e-06 0)
(0.00179647382072 -2.00239593734e-05 0)
(0.00174375324532 -2.8081591686e-05 0)
(0.00162506824195 -4.79169910852e-05 0)
(0.00150730300775 -4.10908714171e-05 0)
(0.00144276490578 -2.52237115761e-05 0)
(0.001411837531 -3.19117460769e-05 0)
(0.00128610204251 -3.72226959607e-05 0)
(0.00121432611061 -2.16417665069e-05 0)
(0.00113328546381 -3.84776087929e-05 0)
(0.00114647044696 -9.16856349974e-05 0)
(0.000867272486953 -8.21945227843e-05 0)
(0.000693188562258 -5.37858105639e-05 0)
(0.000603062723842 -3.71302627982e-05 0)
(0.000544298548607 -3.42748171291e-05 0)
(0.00049538404286 -3.33621409394e-05 0)
(0.000443876859399 -3.36021165203e-05 0)
(0.000380831939287 -3.40989769624e-05 0)
(0.000317046794012 -3.29475894008e-05 0)
(0.000252588739623 -2.95879626213e-05 0)
(0.000196666093228 -2.61577355123e-05 0)
(0.000157089481168 -2.40381245764e-05 0)
(0.000107282043526 -1.72262684723e-05 0)
(8.45739362724e-05 -1.35153468106e-05 0)
(5.13270603688e-05 -7.73483442023e-06 0)
(4.86178105205e-05 -8.72966042988e-06 0)
(1.98707566808e-05 -5.24211041646e-06 0)
(1.44439240372e-05 -9.06771640938e-06 0)
(2.0204262219e-05 0.000102413160358 0)
(8.73068435798e-05 0.000116597527593 0)
(0.000152946382323 0.000108250490094 0)
(0.000194329061095 8.65386434822e-05 0)
(0.000287392785595 8.6176260979e-05 0)
(0.000379873265307 6.15695609987e-05 0)
(0.000435646436939 3.71775565842e-05 0)
(0.000473020706271 5.13404328261e-05 0)
(0.000512769816234 7.03892267872e-05 0)
(0.00055811381522 6.9442135325e-05 0)
(0.000602075225178 6.60624705952e-05 0)
(0.000642845708776 6.70437902156e-05 0)
(0.000681322386015 6.11678119868e-05 0)
(0.000717098540617 5.22800805515e-05 0)
(0.000754363575749 4.86117509781e-05 0)
(0.000791995483613 6.04223650745e-05 0)
(0.000830849814858 6.49372844125e-05 0)
(0.000861544405161 4.41191132696e-05 0)
(0.000853279993668 2.91065245285e-05 0)
(0.000881568475715 2.96295902086e-05 0)
(0.00092287781406 4.64979928633e-05 0)
(0.000974118307488 6.97876022587e-05 0)
(0.00103628558583 7.71656012359e-05 0)
(0.00108962084606 7.032731758e-05 0)
(0.00111805166934 6.48846492908e-05 0)
(0.00117018798415 6.37979439975e-05 0)
(0.00121868708256 6.08559797754e-05 0)
(0.00125768572807 5.55801206266e-05 0)
(0.00129306854888 5.01779543577e-05 0)
(0.0013267491505 4.60195338352e-05 0)
(0.00135866880629 4.53167968234e-05 0)
(0.00137887480695 4.353913983e-05 0)
(0.00141077670102 3.74752220302e-05 0)
(0.00143696322662 4.10663959948e-05 0)
(0.00145870444545 4.62566162678e-05 0)
(0.00151095423164 4.24552016888e-05 0)
(0.00153797097919 4.64327830844e-05 0)
(0.00155714207823 5.15485741748e-05 0)
(0.00160238679868 5.00120633749e-05 0)
(0.00166778165213 4.80932698122e-05 0)
(0.00171743879036 4.15834199282e-05 0)
(0.00163771690224 3.1506329051e-05 0)
(0.00162096276367 2.69461204593e-05 0)
(0.00165350911894 2.54975235826e-05 0)
(0.00167585079208 2.35107528451e-05 0)
(0.00170675849785 1.97558563741e-05 0)
(0.00174069256529 1.32187251489e-05 0)
(0.00176065627611 4.51964112528e-06 0)
(0.00178747663078 -4.64611553378e-06 0)
(0.00180116697353 -1.15430533383e-05 0)
(0.00178125190951 -1.29568571309e-05 0)
(0.0017105210188 -1.52980489206e-05 0)
(0.00164566761371 -2.20777082152e-05 0)
(0.00179419265921 -4.79586054818e-05 0)
(0.00171763016669 -9.42691113599e-05 0)
(0.00165467896418 -0.000122381770142 0)
(0.00167681679338 -0.000115655834791 0)
(0.00163331697076 -9.95607394049e-05 0)
(0.00156839693665 -0.000114397496225 0)
(0.00150597808721 -0.000138060525737 0)
(0.00145583164467 -0.000159130400662 0)
(0.00111393021057 -0.000162250111596 0)
(0.00115348744541 -0.000253934002059 0)
(0.000875182692993 -0.000240838081948 0)
(0.000705173017343 -0.000177189407405 0)
(0.000576883697141 -0.000122241172341 0)
(0.000502582086609 -9.29059886161e-05 0)
(0.000472926033888 -8.76036095672e-05 0)
(0.000423879961046 -9.25932276473e-05 0)
(0.000368946677593 -9.96657016151e-05 0)
(0.000302471713597 -9.8868701076e-05 0)
(0.000237082521748 -8.83376385479e-05 0)
(0.000177610005786 -7.08402725559e-05 0)
(0.000143583749605 -6.09637701584e-05 0)
(0.00011021559374 -4.99814401208e-05 0)
(8.39601629304e-05 -4.00000928691e-05 0)
(6.1732927212e-05 -3.01720336517e-05 0)
(4.44176405837e-05 -2.54443374994e-05 0)
(2.60267188531e-05 -2.3050891068e-05 0)
(1.13685852239e-05 -3.3882182126e-05 0)
(3.03392146733e-05 0.000177713297772 0)
(8.50285568665e-05 0.00019557643818 0)
(0.000130320573963 0.000185918523658 8.1484719365e-29)
(0.000229457532159 0.000193931314316 -7.84039093093e-29)
(0.000325434112587 0.00019644837379 -7.17879925669e-29)
(0.000380385342618 0.000159125589542 6.62391030607e-29)
(0.000417778203434 8.50155450418e-05 -6.7450407272e-29)
(0.000456590938179 9.38006788388e-05 6.71829393697e-29)
(0.000499149788411 0.000115990017248 0)
(0.000547743302404 0.000120178143898 0)
(0.000596141644651 0.000114646793234 0)
(0.000638519684882 0.000107554477763 0)
(0.000676810426308 9.82629496757e-05 0)
(0.000711380231639 9.24182783297e-05 0)
(0.000746804682332 8.90491891302e-05 0)
(0.000783542826156 7.8649841214e-05 0)
(0.00069640124302 5.49359244694e-05 0)
(0.000674068393535 4.16664000882e-05 0)
(0.000702201839454 5.02884731028e-05 0)
(0.000763163199332 8.30967675748e-05 0)
(0.000906452272 0.000124319236337 0)
(0.000992684837617 0.000139304843268 0)
(0.00102000959559 0.000131450926151 0)
(0.00107322961942 0.000121595195583 0)
(0.00112940781031 0.000116052990505 0)
(0.00117249185908 0.00011217242966 0)
(0.00121189240999 0.000104193433693 0)
(0.00125086262614 9.53807215822e-05 0)
(0.00128665319078 8.75776802022e-05 0)
(0.00131711384455 8.18582033177e-05 1.43109708685e-28)
(0.00135297167091 7.67490988608e-05 -1.39044480346e-28)
(0.00136449315006 7.22983882747e-05 0)
(0.00138931743881 6.74013079871e-05 0)
(0.0014403203048 6.41447762675e-05 0)
(0.00141601628179 7.6180984958e-05 0)
(0.00146617599026 8.57522633826e-05 0)
(0.00154244957234 8.27400345975e-05 0)
(0.00152484782665 8.95273978598e-05 0)
(0.00158221038561 0.000105191736256 0)
(0.00166248474275 0.000100567447547 0)
(0.00171697259861 6.57866526528e-05 0)
(0.0017463364787 4.02437495967e-05 0)
(0.0017724156777 4.55161698098e-05 0)
(0.00179656298577 5.22102634998e-05 0)
(0.00181478639732 5.15430691244e-05 0)
(0.00182833522431 4.70178829387e-05 0)
(0.00183801337047 3.71191503678e-05 0)
(0.00184403010937 2.46412403385e-05 0)
(0.00184669742529 9.47061944507e-06 0)
(0.00184598284633 -1.13288536607e-05 0)
(0.00184253312157 -3.31862909177e-05 0)
(0.00183499052434 -4.24772701785e-05 0)
(0.00181741123601 -3.16408171695e-05 0)
(0.00176498360714 -6.18292366584e-05 0)
(0.00169055040172 -0.000115042982103 0)
(0.00169323659257 -0.000135818628527 0)
(0.00167119243796 -0.00014153588114 0)
(0.00161371625211 -0.000155006690711 0)
(0.00154175016485 -0.000179374250043 0)
(0.00146162626689 -0.000219836781878 0)
(0.00135899830586 -0.000291509740362 0)
(0.00124281916739 -0.000362671066613 0)
(0.0011496576904 -0.000477958483151 0)
(0.000833824379984 -0.000422807254626 0)
(0.000620068208151 -0.000278739727086 0)
(0.000545480871834 -0.000199973254852 0)
(0.000498499965353 -0.000161597266032 0)
(0.00044149267001 -0.000146797284031 0)
(0.000386167318459 -0.00015269987098 0)
(0.000326479074156 -0.000161058638793 0)
(0.000261725262555 -0.000155841029805 0)
(0.000204385823676 -0.000136607791633 0)
(0.000163790429313 -0.000116212260662 0)
(0.000130102155098 -9.93337043868e-05 0)
(9.83398598515e-05 -8.25854182663e-05 0)
(7.06384143034e-05 -6.62293290994e-05 0)
(4.81301215313e-05 -5.16323449092e-05 0)
(3.28569959507e-05 -4.47069326448e-05 0)
(2.10566796864e-05 -4.75497323916e-05 0)
(4.86532893068e-06 -4.32758599317e-05 0)
(2.96255681992e-05 0.00026869210904 0)
(3.78889723442e-05 0.000176194422536 0)
(0.000106914002126 0.000284163755375 0)
(0.000202847379677 0.000291184353741 0)
(0.000277850509626 0.000246290462045 0)
(0.000150228147829 9.06145767666e-05 0)
(0.000186599468937 9.25970046497e-05 0)
(0.000363537851634 0.000179129917343 0)
(0.000464010222555 0.000195187735554 0)
(0.000525171576116 0.000179106515908 0)
(0.000583393986383 0.00016643220625 0)
(0.000631384913913 0.000151478723815 0)
(0.000670999393194 0.000136299812337 0)
(0.000696896756184 0.000110607177904 0)
(0.000647619421335 7.18327244904e-05 0)
(0.000608642061482 4.57222569952e-05 0)
(0.000612258896609 4.32860322436e-05 0)
(0.000661599790463 7.4731634128e-05 0)
(0.000773970760947 0.000130583611654 0)
(0.000896801423923 0.000191346547269 0)
(0.000937703958378 0.000205438645815 0)
(0.000981040573539 0.000193088532948 0)
(0.00103334512779 0.000181682783494 0)
(0.00108047917293 0.000173075672908 0)
(0.00112319304131 0.00016273864623 0)
(0.00116302194182 0.000151828117871 0)
(0.00119993257458 0.000141683603534 0)
(0.0012428033179 0.000131598628438 0)
(0.001272261108 0.000121101896527 0)
(0.0013137217672 0.000112804024011 0)
(0.00132664772739 0.000103906169958 0)
(0.00136922450309 9.53225684594e-05 0)
(0.00135757913561 8.30489074625e-05 0)
(0.00138728708025 8.76100798825e-05 0)
(0.00146010815467 0.000106145618301 0)
(0.00144636912138 0.000123383139218 0)
(0.00151799370037 0.000133215823754 0)
(0.00160037533905 0.000143530156966 0)
(0.00164224600331 0.000155944688354 0)
(0.0016758759328 0.000143632376716 0)
(0.00171057748262 0.000109563158116 0)
(0.00174258997356 8.11669707345e-05 0)
(0.00177130232659 7.20804563682e-05 0)
(0.0017958323886 6.96726886644e-05 0)
(0.0018147352253 6.45952077096e-05 0)
(0.0018289591018 5.57342929445e-05 -1.37383043445e-28)
(0.00183930002738 4.29782561695e-05 1.38396644984e-28)
(0.00184594980599 2.71681071006e-05 0)
(0.00184894618217 8.36265243639e-06 0)
(0.00184808211495 -1.35544749281e-05 0)
(0.00184267279356 -3.56197686398e-05 0)
(0.00182983759822 -5.44512202827e-05 0)
(0.00180514666407 -7.57903837261e-05 0)
(0.00176726260624 -0.000112537106462 0)
(0.00172743180318 -0.000146076544501 0)
(0.0016914450313 -0.000167678577072 0)
(0.00164546754391 -0.00019449408126 0)
(0.00157933958782 -0.000227804332534 -2.67430268002e-28)
(0.00149324600586 -0.00027038990845 3.05439882726e-28)
(0.00138744575684 -0.000329669374153 0)
(0.00126116899471 -0.000408298069688 0)
(0.00112532495756 -0.000504530686177 0)
(0.00100922653174 -0.000628559501195 0)
(0.000833869732862 -0.000610475517431 0)
(0.000665053520707 -0.000434819363416 0)
(0.000522047252911 -0.000275010390198 0)
(0.000451574178193 -0.000217529365054 0)
(0.000397427305814 -0.00020576099356 0)
(0.000343577727652 -0.000212113932849 0)
(0.000292267748482 -0.00022445676243 0)
(0.000234318517186 -0.000219043179066 0)
(0.000179352687576 -0.000193280714457 0)
(0.000134034568769 -0.000160628690336 0)
(9.47763593256e-05 -0.0001276315207 0)
(6.7295094194e-05 -0.000106693851708 0)
(4.39638517271e-05 -9.11004510107e-05 0)
(2.43652773584e-05 -7.03427452377e-05 0)
(1.17874084627e-05 -4.6373911542e-05 0)
(8.04186105553e-06 -4.90763864046e-05 0)
(2.40721020986e-06 -5.19975351692e-05 0)
(8.04667592128e-07 0.00026334381547 0)
(1.78124946062e-05 0.000215260320374 0)
(9.80485630914e-05 0.000377462553883 0)
(0.000171635836099 0.00034839444433 0)
(0.000174542241009 0.000219717121735 0)
(0.000135359966969 0.000120759874189 0)
(0.000235746934349 0.000204125879256 0)
(0.000379003942874 0.000303016500268 0)
(0.000432931870397 0.000276109969508 0)
(0.000499055097739 0.000244581911509 0)
(0.000560473437349 0.000227869896553 0)
(0.000611173484646 0.000200627304335 0)
(0.000610493691826 0.000139957442994 0)
(0.000549582289288 7.81069171814e-05 0)
(0.000563659957614 5.77396425391e-05 0)
(0.000606186515734 6.88479359556e-05 0)
(0.000682851942204 0.000108827279072 0)
(0.000785608296436 0.000173774286258 0)
(0.000864556122108 0.0002262933793 0)
(0.00088433090687 0.000236926626918 0)
(0.000926348059832 0.000242406263665 0)
(0.000981828444739 0.000243473718042 0)
(0.00102792615244 0.000232341361392 0)
(0.00107206596784 0.000217485735456 0)
(0.00111274708444 0.000203271665408 0)
(0.0011493021629 0.000191486396453 0)
(0.00119353773308 0.000179859090071 0)
(0.00121903057361 0.000166361141214 0)
(0.00126907755121 0.000155071651796 0)
(0.00127652008349 0.000140365511117 0)
(0.00133320777991 0.000130461231203 1.36319691825e-28)
(0.00130034524958 0.00011380823147 -1.25964193281e-28)
(0.0013647306957 0.000114080632384 0)
(0.00142283820151 0.000122202396371 0)
(0.00141833021863 0.00014055978495 0)
(0.00150621046877 0.000176247858717 0)
(0.00156092050434 0.000199934842139 0)
(0.00160645461287 0.000199098416295 0)
(0.0016433598442 0.000189212048067 0)
(0.0016758916511 0.000171182669504 0)
(0.00170940044598 0.000143218679288 0)
(0.00174207343126 0.000116866647047 0)
(0.00177152145518 0.000101161327308 0)
(0.00179642249909 9.14143601709e-05 0)
(0.00181609301169 8.11796721455e-05 0)
(0.0018312344852 6.81388264226e-05 0)
(0.00184239249774 5.17579270555e-05 0)
(0.00184963673498 3.2197160543e-05 0)
(0.00185268905305 9.33558601234e-06 0)
(0.00185092282006 -1.68247048323e-05 0)
(0.00184317959714 -4.50639024236e-05 0)
(0.00182711252823 -7.45934566601e-05 0)
(0.00180029227508 -0.00010790106973 0)
(0.00176313541919 -0.000147120593781 0)
(0.00172077790651 -0.000184555849306 0)
(0.001674148732 -0.000219999337578 0)
(0.00161435966635 -0.000262972892135 0)
(0.00153262976802 -0.000316767275269 0)
(0.00142595143738 -0.000381938194114 0)
(0.00129710961276 -0.000459641910513 0)
(0.00115570686031 -0.000548239132023 0)
(0.00102134362011 -0.000645756647311 0)
(0.000907649919199 -0.000742453911909 0)
(0.000815368106036 -0.000747714737659 0)
(0.000671642842184 -0.000575992095082 0)
(0.000531892731229 -0.000394006990766 0)
(0.000440019587159 -0.000308588020577 0)
(0.000362507926577 -0.000275273129893 0)
(0.000297703947979 -0.000270385428499 0)
(0.000242464436596 -0.000279159208264 0)
(0.000187174794063 -0.000278011000317 0)
(0.000133584736855 -0.000244682012459 0)
(8.98577472896e-05 -0.000190706965989 0)
(6.0744488724e-05 -0.000156515685859 0)
(3.53627360287e-05 -0.00013428244725 0)
(1.48831404982e-05 -0.000111410230488 0)
(4.37875129866e-06 -7.6906578868e-05 0)
(9.15802312484e-07 -5.33676386206e-05 0)
(-1.47718776834e-06 -5.54810361523e-05 0)
(-1.22671282742e-06 -5.21933991703e-05 0)
(-1.95590728163e-06 0.000243903021651 0)
(2.32301013782e-05 0.000262718523608 0)
(9.98438684385e-05 0.000429037006211 0)
(0.000137044183076 0.00034999363829 0)
(9.88353739809e-05 0.000167780405483 0)
(0.000135728980515 0.000173407031598 0)
(0.000304906005106 0.000341176183585 0)
(0.000365285575126 0.000365450974718 0)
(0.000410501486954 0.000335368209304 0)
(0.000467221615329 0.00030862346159 0)
(0.000525176294417 0.000268966551231 0)
(0.000477652847764 0.000179141086228 0)
(0.00043191301024 0.000101832231058 0)
(0.000470663468349 8.67299661345e-05 0)
(0.000521728459251 0.000103823535085 0)
(0.000621091981802 0.000151909894996 0)
(0.000734031381128 0.000211654630485 0)
(0.000812572398508 0.000248200917035 0)
(0.000817228768749 0.000249929784382 0)
(0.000866447424843 0.000272839584523 0)
(0.000928923441057 0.00029519865592 0)
(0.00097368149863 0.00029206577831 0)
(0.00101640697527 0.000277611311364 0)
(0.0010565921708 0.000260876482636 0)
(0.00110359063274 0.000246110917854 0)
(0.00114035395167 0.000227454145414 0)
(0.0011532371025 0.00021289670567 0)
(0.00121986691921 0.00020389805819 0)
(0.00121048351055 0.000181078551855 0)
(0.00128728583612 0.00016685820302 0)
(0.00122836462245 0.000141172587641 0)
(0.00132377498552 0.000147142399739 0)
(0.00128242598863 0.000146216099822 0)
(0.00137512615594 0.000167983518633 0)
(0.00146954757812 0.000206674867231 0)
(0.00152680938631 0.000240203291552 0)
(0.00156919606625 0.000246113291503 0)
(0.00160720288938 0.000237647051119 0)
(0.00164203957213 0.000222779981397 0)
(0.00167567442328 0.000202612127701 0)
(0.00170926787178 0.000176768983516 0)
(0.00174197217435 0.000150782684651 0)
(0.00177185587343 0.00013033015286 0)
(0.00179732478948 0.000114249877381 0)
(0.00181799937984 9.8686052254e-05 0)
(0.00183419940426 8.12602577858e-05 0)
(0.00184632799056 6.09493268105e-05 0)
(0.00185418258107 3.72765333261e-05 0)
(0.00185707989354 9.73961616331e-06 0)
(0.00185411197191 -2.19591307394e-05 0)
(0.0018440431866 -5.75623847673e-05 0)
(0.0018250995861 -9.68960389512e-05 0)
(0.0017958821923 -0.000140277189619 0)
(0.00175677118576 -0.000186695206929 0)
(0.00170924130418 -0.000233600704586 0)
(0.001651074168 -0.000284652131758 0)
(0.00157478267949 -0.000347365788491 0)
(0.00147458052248 -0.000423765856966 0)
(0.0013520660608 -0.000510695119481 0)
(0.00121228284558 -0.00060081923332 0)
(0.00107186817336 -0.000689359611765 0)
(0.000948036129046 -0.000764165320523 0)
(0.000788460791874 -0.000774762522089 0)
(0.000801818542824 -0.000885008555888 0)
(0.00061108816001 -0.000679964503722 0)
(0.000487930108516 -0.000486094729621 0)
(0.000407792005478 -0.000399603765967 0)
(0.000323238256712 -0.000352864141022 0)
(0.000246962766324 -0.000332772117698 0)
(0.000187653332722 -0.000343742654158 0)
(0.00013116948807 -0.000339529872914 0)
(8.2819169463e-05 -0.000277179029232 0)
(5.05294499326e-05 -0.000219632138299 0)
(2.29170782343e-05 -0.00018623044921 0)
(-4.94608204958e-07 -0.000155839805401 0)
(-1.22106941284e-05 -0.000121473685476 0)
(-1.25452571616e-05 -7.7482105595e-05 0)
(-1.16935924896e-05 -5.49013368173e-05 0)
(-1.00999403811e-05 -5.34916524811e-05 0)
(-3.45301587317e-06 -4.78085173854e-05 0)
(7.7742819825e-06 0.00026431459288 0)
(5.66061159827e-05 0.000346170125188 0)
(0.000132171691161 0.000465680038346 0)
(0.000142963085079 0.000429144026019 0)
(9.11802662731e-05 0.000209130664417 0)
(0.000199814865453 0.000312191637778 0)
(0.00031907802999 0.000421264700748 0)
(0.000347536689634 0.000408550637456 0)
(0.000391025729804 0.00037966261592 0)
(0.000416504866118 0.00034570375315 0)
(0.000489538720712 0.00029060478104 -3.08716160627e-28)
(0.00036587111985 0.000139567463282 1.74065398079e-28)
(0.000425336138226 0.000126570709954 0)
(0.000457006309179 0.000137495793427 0)
(0.000542391830992 0.000188449130186 0)
(0.000665226913257 0.000265365347773 0)
(0.000749242321186 0.000295162963998 0)
(0.000736050414893 0.000268030987307 0)
(0.000790573841584 0.000289516927627 0)
(0.000869603091422 0.000333758444135 0)
(0.000913877636149 0.000345428388645 0)
(0.000959998070592 0.000337329320752 0)
(0.00100436111628 0.000322250933162 0)
(0.00104653257682 0.000302647097449 0)
(0.00107698586368 0.000278500906074 0)
(0.00109452380914 0.000254269489069 0)
(0.00115518569481 0.000245711987708 0)
(0.00113170201087 0.000228006439663 0)
(0.00122860896826 0.000214346793422 0)
(0.0011594769488 0.000167195389687 0)
(0.00126160944341 0.000172139939215 0)
(0.0012312357514 0.000177539947305 -1.20440520505e-28)
(0.00132661195461 0.000198852591118 1.28083745583e-28)
(0.00137656469974 0.000241565498674 0)
(0.00148724916077 0.000285394326181 0)
(0.00153267030625 0.00029318663834 0)
(0.00156889725073 0.00028592433628 0)
(0.00160464797194 0.000273149977041 0)
(0.00164056794092 0.00025651241915 0)
(0.00167562917243 0.000235597798047 0)
(0.00170959490316 0.000210314581018 0)
(0.00174246614126 0.000183789608417 0)
(0.00177272745727 0.000159669056509 0)
(0.00179890954014 0.000138271198445 0)
(0.00182063339681 0.000117581280482 0)
(0.00183806566177 9.56128246789e-05 0)
(0.00185128797085 7.09814999265e-05 0)
(0.00185972453868 4.26028658317e-05 0)
(0.00186237268915 9.53865272661e-06 0)
(0.001858195834 -2.88214167027e-05 0)
(0.0018460036919 -7.26075145128e-05 0)
(0.00182435005955 -0.000121592552631 0)
(0.00179214380598 -0.000175111607956 0)
(0.001748947634 -0.000232120966502 0)
(0.00169380545584 -0.00029323581691 0)
(0.00162294533792 -0.000363463560354 0)
(0.00153069238128 -0.000447818402604 0)
(0.00141556168342 -0.000544387881759 0)
(0.00128408543634 -0.00064464355423 0)
(0.00115003017412 -0.000737937296933 0)
(0.00102525805165 -0.000813601337687 0)
(0.000916892191828 -0.00086783932105 0)
(0.000830635926509 -0.00092417145179 0)
(0.00077773510592 -0.000972222639228 0)
(0.000610115838391 -0.000799587789224 0)
(0.000434616469181 -0.000564096453194 0)
(0.000366975448725 -0.000489587245191 0)
(0.000283434501992 -0.00044711406821 0)
(0.000199415099055 -0.000420827897697 0)
(0.000129722488334 -0.000415723609583 0)
(7.60478860177e-05 -0.000380099052285 0)
(3.85696838222e-05 -0.000305071451185 0)
(7.25473133583e-06 -0.000254022481861 0)
(-2.14084908846e-05 -0.000212021044617 0)
(-3.8422024042e-05 -0.000169539872433 0)
(-3.85184025073e-05 -0.000117875658233 0)
(-3.28076476734e-05 -7.65902698042e-05 0)
(-2.66343005373e-05 -5.13338693686e-05 0)
(-1.96398994422e-05 -4.50284147576e-05 0)
(-6.38047400452e-06 -3.94001161614e-05 0)
(1.70614332913e-05 0.000307715035751 0)
(8.26352881151e-05 0.000428806285374 0)
(0.000148914864388 0.000479989125481 0)
(8.59828361437e-05 0.000274711080063 0)
(9.45158326986e-05 0.000260690819414 0)
(0.000238831390546 0.000444390083889 0)
(0.000291518157503 0.000463634188311 0)
(0.000333366790564 0.000450673153437 0)
(0.000352024671237 0.000405615764644 0)
(0.000396841424416 0.000373430448322 0)
(0.000311491131352 0.000212367388307 0)
(0.000358252472249 0.000165170001806 0)
(0.000408857491926 0.000169409006379 0)
(0.000450998000232 0.000200793145761 0)
(0.000582501760576 0.000295614824688 0)
(0.000680987001324 0.000347904488821 0)
(0.000661772461046 0.0003068250623 0)
(0.000703997333821 0.000307919808961 0)
(0.000793996601021 0.000360412592203 0)
(0.000854709844283 0.00039067442442 0)
(0.000894526489116 0.000390691066539 0)
(0.000935393362839 0.000380261804878 0)
(0.000985403776984 0.000368487349871 0)
(0.00102577252533 0.000345558389614 0)
(0.00107301510048 0.000310763948837 0)
(0.00106613174244 0.000286665309726 0)
(0.00114154424361 0.000275721997493 0)
(0.00113914207121 0.000250093359591 0)
(0.00112831961061 0.000220403867089 0)
(0.00116703626229 0.000208698723471 0)
(0.0012804165595 0.000219369861 0)
(0.00126297297156 0.000213892795333 0)
(0.00129015687494 0.000257903288944 0)
(0.00143976900454 0.000328590209093 0)
(0.00148669728922 0.000349472781788 0)
(0.00152762975561 0.000338657464462 0)
(0.00156530323269 0.000324028670564 0)
(0.00160174654952 0.000309076303543 0)
(0.00163881861681 0.000291648519965 0)
(0.00167535825063 0.000270057855148 0)
(0.00171021541591 0.000244310605881 0)
(0.00174338802573 0.000216551023546 0)
(0.00177415832476 0.00018928752587 0)
(0.0018012869106 0.000163342961278 0)
(0.00182425037258 0.000137849309446 -1.32787724037e-28)
(0.00184307277129 0.000111263525828 1.32388182435e-28)
(0.00185748673685 8.19045125427e-05 0)
(0.0018665477286 4.81642462525e-05 0)
(0.00186903099079 8.75332559219e-06 0)
(0.00186385358105 -3.71346180007e-05 0)
(0.00184983559009 -8.98177735055e-05 0)
(0.00182559126946 -0.000149065213343 0)
(0.0017898616651 -0.000214231583283 0)
(0.00174124140183 -0.00028519366362 0)
(0.00167714182065 -0.000364117027607 0)
(0.00159361946386 -0.000455328942574 0)
(0.0014880382714 -0.000559985932524 0)
(0.00136396871307 -0.000671382433629 0)
(0.00123295596817 -0.000777411611453 0)
(0.00110758828586 -0.000864803226515 0)
(0.00099329824057 -0.000921357340089 0)
(0.000899468321002 -0.000957158586702 0)
(0.000827723694052 -0.000991398957591 0)
(0.000768302672967 -0.00103065471942 0)
(0.000732945012661 -0.00104066407047 0)
(0.000448737774742 -0.000700729744508 0)
(0.000317939546971 -0.000582656677496 0)
(0.000226729605506 -0.000535393250834 0)
(0.000138410948228 -0.00049750968879 0)
(7.13483833852e-05 -0.000469631855443 0)
(2.64693125259e-05 -0.000412312084475 0)
(-9.88053278146e-06 -0.000341894943374 0)
(-4.64739124093e-05 -0.000287914372659 0)
(-7.17548174612e-05 -0.000231946554683 0)
(-7.92592275187e-05 -0.000172082099037 0)
(-7.01045740426e-05 -0.000110786181255 0)
(-5.99880522944e-05 -6.91018661365e-05 0)
(-4.53063641102e-05 -4.20440402146e-05 0)
(-3.02431265886e-05 -2.99940793625e-05 0)
(-1.03716388917e-05 -2.38158990125e-05 0)
(2.44263607161e-05 0.000363795216592 0)
(9.59583416013e-05 0.000497253428781 0)
(0.000121828920809 0.000488424748213 0)
(8.10678848273e-05 0.000300574159395 0)
(0.000136823428582 0.000349154422807 0)
(0.00024896444025 0.000507046035109 0)
(0.000263887321147 0.000502371670705 0)
(0.00031933326261 0.000488712366692 0)
(0.000294768086489 0.00039525646217 0)
(0.000391752364166 0.000418014956879 0)
(0.000296381192185 0.000232101959163 0)
(0.000360932333342 0.000212781014529 0)
(0.000398682440987 0.000221335210927 0)
(0.000481443533071 0.000294274218827 0)
(0.000599760825661 0.000393700097605 0)
(0.000658449639439 0.000394535261603 0)
(0.000635198299358 0.000339308794545 0)
(0.000703086534792 0.000373160634857 0)
(0.000779609944068 0.000425413890071 0)
(0.000830448864435 0.000441386899878 0)
(0.000876889303187 0.000435807563699 0)
(0.000910782978905 0.000420131849354 0)
(0.000955912211619 0.000406630316886 0)
(0.000979461982085 0.000379529034984 0)
(0.000992550486731 0.000329339639232 0)
(0.00107513994518 0.000319917033183 0)
(0.00101963981178 0.000292036632307 0)
(0.00116692974463 0.000286739539441 0)
(0.00110110242581 0.000254954404551 0)
(0.00124114006061 0.000271614997056 0)
(0.00117386745129 0.000245350835633 0)
(0.00131457130424 0.000276377225038 0)
(0.00137693924063 0.000341071894784 -1.40573183304e-28)
(0.00143948899613 0.000393124519935 1.45414619394e-28)
(0.00148138212627 0.000395336673805 0)
(0.00152112369937 0.000380390216885 0)
(0.00156080939682 0.000363435087711 0)
(0.00159886591105 0.000346676198669 0)
(0.00163685112292 0.000328240133663 0)
(0.00167446339057 0.000305860912377 0)
(0.00171057099758 0.000279123889199 0)
(0.00174465904853 0.000249668329108 0)
(0.00177621537488 0.000219501170066 0)
(0.00180448640206 0.000189580695019 0)
(0.00182901857702 0.000159605686007 0)
(0.00184946088358 0.000128319253778 0)
(0.00186516994533 9.38347070461e-05 0)
(0.00187501268359 5.41371681605e-05 0)
(0.00187766726591 7.67890335133e-06 0)
(0.00187196155123 -4.64888360937e-05 0)
(0.00185662736179 -0.000108850794821 0)
(0.00183016176124 -0.000179520998412 0)
(0.00179090695558 -0.000258457055248 0)
(0.00173637673015 -0.000346429250567 0)
(0.00166304687128 -0.000445682081804 0)
(0.00156784786215 -0.000557807377921 0)
(0.00145160206705 -0.000679164320359 0)
(0.00132296312528 -0.000798838291964 0)
(0.00119749045704 -0.000905213971954 0)
(0.00108238905583 -0.00098670199487 0)
(0.000974431350631 -0.00102477022127 0)
(0.000880304689894 -0.0010340448366 0)
(0.000809870411913 -0.00105020549641 0)
(0.000756339425134 -0.00107959359732 0)
(0.000735627493584 -0.0011076027584 0)
(0.000591057393388 -0.000977638344522 0)
(0.000302649522267 -0.000689240137554 0)
(0.00016410559584 -0.000636707818201 0)
(8.08490306551e-05 -0.000583933938164 0)
(1.96297784473e-05 -0.0005213254752 0)
(-2.53289441068e-05 -0.00045070130525 0)
(-7.03969588357e-05 -0.000386877265406 0)
(-0.000110457719045 -0.000319938909833 0)
(-0.000128837066215 -0.00024301500629 0)
(-0.000125575327464 -0.000165419606531 0)
(-0.000111105867382 -9.90128783745e-05 0)
(-9.19488475799e-05 -5.15062773465e-05 0)
(-6.67082555542e-05 -2.21228568813e-05 0)
(-3.97603309698e-05 -6.81083789023e-06 0)
(-1.31318570758e-05 4.97850433844e-08 0)
(3.07361120515e-05 0.00043545859085 0)
(0.000108415997878 0.000547424705685 0)
(0.000110028598828 0.000476322919518 0)
(8.16439649237e-05 0.000321067279723 0)