/*--------------------------------*- C++ -*----------------------------------*\
| =========                 |                                                 |
| \\      /  F ield         | OpenFOAM: The Open Source CFD Toolbox           |
|  \\    /   O peration     | Version:  v1806                                 |
|   \\  /    A nd           | Web:      www.OpenFOAM.com                      |
|    \\/     M anipulation  |                                                 |
\*---------------------------------------------------------------------------*/
FoamFile
{
    version     2.0;
    format      ascii;
    class       volScalarField;
    location    "600";
    object      alpha;
}
// * * * * * * * * * * * * * * * * * * * * * * * * * * * * * * * * * * * * * //

dimensions      [0 0 -1 0 0 0 0];


internalField   nonuniform List<scalar> 
6400
(
0.884934033436
1.40870883377
2.22732102658
2.75920828346
3.26823815821
3.78157028698
4.44499951234
5.19022565486
5.6028734955
6.24932435573
7.48609685833
8.3302609515
9.03277397613
9.82794894531
10.8186667951
11.856625862
12.7752038587
13.6383340956
14.3647664166
14.7807176609
14.9683188615
15.2787658264
15.9221710744
16.8855814983
17.9448272697
18.8938729772
19.6685618423
20.3836273994
21.1436129584
21.9634859913
22.7881433257
23.4187312829
23.7784789637
23.9928798385
24.1006439741
24.0899961472
24.2526928422
24.6572516362
24.7325362883
24.5770270862
24.8070033562
25.5565921389
26.3140419995
26.7196422814
26.8261922891
26.7265053668
26.4884623893
26.1591109581
25.7515381089
25.2860949586
24.6712458317
23.6727489426
22.3556604864
20.7837889576
19.4260889751
18.3499445406
16.8213669527
14.5181003216
12.0893094303
10.2051026002
8.27010083723
6.25266987918
4.23238974661
4.77918397462
8.55382056775
13.416671892
16.3759434608
16.0700262402
14.0867792981
12.5089630639
11.6945438159
11.9612752679
12.5642085534
12.4866044234
14.5880354604
14.0481554455
15.949012317
9.85035304451
12.8652359983
4.8083408024
3.14820489679
2.51641762644
3.13149481767
4.3872817068
4.30477893148
4.21199216813
4.43872430413
4.89215579938
5.53699020225
6.35795713692
7.34900759219
8.33751599092
9.20984517697
10.0447127039
10.8951170484
11.8676265904
12.8893530254
13.8666682738
14.895627242
15.1373773431
15.1289429923
15.4067201611
16.0162695365
16.9629863958
18.1587309383
19.045173395
19.787164809
20.543436184
21.3204396644
22.1090280568
22.9016679923
23.63050504
23.9855107612
24.1958745944
24.3404625188
24.2311768644
24.4475197636
24.8759401217
24.8949851999
24.5866823027
24.783594781
26.1515862923
27.2504996809
27.5538166797
27.5951021
27.402599404
27.0456995698
26.6334393131
26.0399590759
25.3891649316
24.8534530315
24.4485376968
23.3680330418
21.0082491086
19.78595985
18.4563697857
16.2736543686
14.034033864
11.8769422112
9.74990128025
7.81041408943
6.61342942991
4.64364084055
5.23112072539
8.71177281227
14.474983053
18.1965499711
16.8989162962
14.7359625703
12.8386430784
12.1941218826
12.6774209437
13.8424336889
13.2997763344
13.1874306823
12.6930954583
11.5201657873
9.69743158087
8.16117793892
4.24526877752
3.23933466415
2.84853932356
3.36520225961
3.65414213101
4.19629060023
4.64075237529
4.63578891974
4.79636261882
5.44089792614
6.33487290015
7.33342711447
8.34170024406
9.26061038481
10.0997383304
10.8051028069
11.6852165147
14.3105027649
16.3158484334
16.7473092843
16.1822864451
14.9361417824
15.0661099334
16.1441654049
17.143838651
18.0774931744
19.0360713665
19.8906180622
20.6495345191
21.4057293851
22.1923018716
22.9481578213
23.7742175069
24.1293684615
24.0910457653
24.5830216716
24.4892185846
24.3550341141
24.9952835725
25.0561321429
24.8059416103
25.0165852738
25.7539891528
26.4948392249
26.9044037632
27.0359400949
26.978893634
26.774719251
26.4440339324
25.9897132383
25.4347110818
24.7806774149
23.9151847369
22.710688818
21.4424766324
20.1866649954
18.3216615659
16.1805060836
14.0269676254
11.9064201793
9.87928668899
8.08264193434
6.38837844626
5.25807011984
6.61988197783
11.1207598194
15.4908588455
17.6307438605
17.7307940632
16.1588419048
14.5233081485
13.8881483386
13.8479831083
13.2280326358
12.6722040355
12.6848321257
12.3743407089
11.4168597441
9.80605668972
7.37397471186
7.56215952062
3.25428149596
5.51204872604
3.68901965622
3.81464076261
4.5138623696
11.8824707527
10.2752515154
5.35933149911
5.41328096897
6.33370429131
7.35735704977
8.38502760589
9.27944318906
10.1384242424
11.8409232985
13.9385402256
15.6170921715
16.0628718767
15.0720648534
14.3445000076
14.7040165303
15.3147588045
16.1182698488
17.1188844454
18.1647944148
19.1587523736
20.0427666629
20.7789403697
21.5581421858
22.2683833285
23.1646837146
23.765828991
24.4282063761
24.3926773222
24.1175293055
24.580480676
24.5416756667
24.5245513249
24.7687514104
24.9947505605
25.338892721
25.9240961213
26.5337127286
26.9385671949
27.1093980358
27.0890272905
26.9130802774
26.6034106785
26.169524066
25.6192068595
24.9374455199
24.0659377677
22.9664309284
21.7001594161
20.2128202223
18.3633088771
16.2591193092
14.1129294369
12.0405783866
10.1359870998
8.51293036739
7.30288764726
6.9834169621
7.98209981768
10.6249692142
15.9159401373
19.3519413132
19.5037130371
17.8409051049
15.4974413266
13.9266379311
13.1856891511
13.4023567491
14.8485305372
14.8102050542
13.5075011716
13.3820004475
16.6801291444
13.0799274164
11.0955788103
5.68445909776
7.58112405203
4.45991459772
4.77827804282
6.60569463828
11.775658199
8.25728688658
5.82467927753
5.93709137591
6.5558566306
7.50207843
8.54398069868
9.96559525941
12.2457592429
13.2847351037
13.7042552393
13.7761302738
13.650250868
13.8022266255
14.394876422
14.8366021958
15.3630379501
16.2118672338
17.2236482848
18.2868194639
19.3131067946
20.1651355642
21.0324932686
21.6740616362
22.5847539512
23.2066977813
24.4129786438
24.3587692911
24.0239655726
24.2412687793
24.088594685
24.2580840026
24.5729274276
24.9059794241
25.2249633909
25.6063391649
26.1123059273
26.6354557834
27.0238017806
27.219750657
27.2315164473
27.0837781638
26.7981383643
26.386761713
25.8509093722
25.1724067433
24.3155820186
23.2563595688
21.9838807143
20.4261482105
18.5356691423
16.4448151771
14.3547696726
12.4119321129
10.742519667
9.48442955068
8.80361162782
8.93189176727
9.26123242668
10.9205477819
15.4685599769
19.446877825
20.8196849278
19.6514649024
16.8914811418
14.4279156358
14.1374895553
16.4334128492
17.3256481288
16.3043757681
15.4020207941
18.0702366844
21.089583825
16.3981635234
15.5134391677
9.97751583425
9.14557908737
5.55613522461
6.10723329568
12.059403057
11.5363908105
6.67099373372
6.42386383167
6.56567841206
6.90808111517
7.74975721719
10.3623021208
13.5587932284
14.0196626017
13.7067883765
12.8613756117
12.5807971485
12.9909473376
13.949021099
14.3691229139
14.7298038101
15.4349555429
16.3585449065
17.4036311773
18.3970650911
19.4344591323
20.5451527639
21.1389537539
22.2095376851
22.6357960864
24.0855201532
24.1946822313
25.0114562376
24.2615592395
23.6606109477
23.8137412852
24.2486120039
24.6947866679
25.0937024012
25.4632762459
25.8648861457
26.3306951323
26.7989940772
27.1686304895
27.3781319477
27.4158653573
27.2952822825
27.0366566954
26.6536541533
26.1449776106
25.4917330191
24.663240418
23.625736657
22.3352578045
20.736819262
18.8505002538
16.8331955563
14.8833553818
13.1581732458
11.795634419
10.9074511441
10.6525485597
11.1926119491
10.3704704992
12.7794282274
17.4166381849
20.781201046
22.1054651374
21.1763469588
17.8015214925
15.6090867634
17.4340961517
19.6622615109
19.1540495187
18.1734250815
18.2630948181
22.8446757003
24.4339591661
19.4258953885
19.2279274907
12.0989155117
9.01054802258
6.75525562982
6.33308132048
12.0069396681
8.44549371456
6.90187095346
7.019663699
7.15048329442
7.84601776446
8.34913696314
13.2821147457
13.9876566012
14.0481269768
12.7606446876
11.8468555667
12.1828404425
13.5133281139
13.9181614087
14.0781639354
14.745375358
15.5500500344
16.4762136281
17.519016072
18.7009070938
19.833691216
20.5726254684
21.9646362687
22.2900922464
23.8595272206
23.8237705493
24.8858693827
24.4649753243
24.0268666013
23.4844245417
23.7610191668
24.3289353729
24.8584681571
25.3015031864
25.706524702
26.1270720991
26.5763648016
27.0135243052
27.3686425107
27.5861960957
27.6449542204
27.5514626885
27.3250093468
26.979625312
26.5119022426
25.9000039096
25.1085441988
24.0917013059
22.7989774474
21.2081490956
19.3913227365
17.5235357756
15.7913280852
14.3195879068
13.1830970751
12.4906245232
12.2776326039
12.0666681681
12.0727863723
14.3692368736
20.0824052655
22.2292791645
22.4774197955
21.3808325516
19.0917031613
18.813269868
21.3758124821
21.8205094182
21.0017297778
20.4333635921
22.4271732448
25.1870951414
26.6550781427
22.0678357957
20.9300236026
11.8198261952
8.67536641081
7.90044556665
12.176935009
12.1156682741
7.49203156076
7.55626686017
7.70420611962
7.8051207883
8.37702653841
13.0338190879
13.9795828379
14.083772145
13.627936274
11.6138927581
11.440203996
13.0050614432
13.6532738871
13.5570839541
13.9556338133
14.7883700143
15.7283795844
16.6838780356
17.7822784378
18.8023716289
20.1908078195
20.669796348
21.9833879732
23.5334295278
23.9988945417
23.5245310412
24.3657832871
24.5424736902
23.483498846
23.4722256311
23.9072098525
24.4791051499
25.0360713051
25.5200986007
25.9601027713
26.4012465188
26.8501654921
27.2736752726
27.6202988276
27.8438904476
27.921514959
27.8572418668
27.6699923151
27.3730799799
26.9602125278
26.4047627934
25.6638343234
24.6848471157
23.4278821189
21.910184035
20.2424633329
18.5938904217
17.0891119877
15.7605772212
14.6613078922
13.9591036376
13.6770529704
13.6521086022
13.9902916268
14.0432564201
20.2932730958
24.0867020751
23.9765203473
23.3160113449
22.3114585655
23.0877778283
24.424445672
23.7409996831
23.0804659445
23.3225628786
25.6846906055
26.373272423
26.9631677148
24.0844970503
21.9466756865
11.1041042497
8.60873478526
8.56884421401
13.1572918342
11.1045256424
8.11747210084
8.26593186659
8.54435106267
9.72712035794
8.49010415466
13.8069867373
14.5032270944
14.1257871754
12.4116198018
11.2547326557
11.5799191654
13.0851258984
13.3733290203
13.4470002351
13.9810478898
14.7928198495
15.8116164592
16.8694768077
18.37073384
19.6383259939
20.1576870746
22.075707312
21.8848648015
23.7311851426
23.4425959218
24.6680965238
23.7146173862
23.4226476261
23.3998784738
23.6454631865
24.1084446566
24.6639196433
25.22931021
25.7499638122
26.2291142975
26.6953343696
27.1531699449
27.5756376635
27.9210422886
28.1513447237
28.2483338872
28.2178923075
28.0784983405
27.8416315941
27.4982165666
27.0169028475
26.3487332203
25.4419899655
24.278301901
22.9127453352
21.4709168455
20.0660706183
18.6918158807
17.2981802257
16.0908625854
15.4532761589
15.4699260107
15.7699184715
15.9649453708
15.7973757366
17.2449886973
24.3234562638
25.8801004257
25.739584347
26.2536056301
27.2095169624
26.7963016591
25.771066872
25.6022202647
26.6464246814
27.8826060493
27.7517810702
27.1486978849
26.1347732177
24.7659026423
10.5799968144
9.05441730991
9.72298070407
13.2297648977
9.16927076675
9.13585624268
8.98195680126
9.24892254275
12.3156323284
11.0560336056
14.6419510401
14.776016558
14.2008244398
11.7373797582
11.2928403322
12.877146772
13.3178162436
13.132446409
13.4156475834
14.1350130508
14.9248401696
15.888822666
16.8073999444
18.5288534039
20.6637427997
20.1068319835
22.0274468409
23.316491001
23.9736819199
24.5977496462
23.9355325817
23.9686020518
23.1375354127
23.3171640502
23.8141523708
24.3311410286
24.8758233938
25.4409170643
25.9907912175
26.5126611937
27.01292321
27.4886391881
27.9183465564
28.2690518333
28.5099842325
28.6291480645
28.6380257592
28.5561956485
28.3921271555
28.1341136633
27.7486531998
27.1852808173
26.4008628005
25.4040358536
24.2762437264
23.1140333463
21.8913869016
20.4258309218
18.8110872206
17.6600851987
17.4412435483
17.9548195258
18.4662820951
18.5856783695
18.2577423742
16.895329874
16.6704959962
27.6464243386
30.3201673961
31.0997020546
30.7633142959
29.2044309628
28.2474566448
28.5772957176
29.8130715859
30.2098680945
29.9982185607
29.7198420369
30.0684820903
30.2574175161
10.5693092299
9.89974199356
13.1238235173
13.4032249492
9.28925921269
9.89726005402
9.69430956909
10.1731456352
11.8359990169
14.5347657198
15.4744533289
15.0494022122
14.4459650343
11.7599611807
11.4528396517
13.3917209497
13.4233930958
13.1120074717
13.443276201
14.2705544528
15.2855094335
16.2484495343
16.9908426436
18.1635312202
20.8352051353
22.0434413153
21.662676195
23.4409510668
22.8681188196
24.6255844069
24.9723110111
23.9235242527
23.1114938444
23.4304551014
24.0132658918
24.5647643373
25.1120319071
25.6773793652
26.2457286239
26.8088269847
27.3533239437
27.8576722632
28.302380156
28.6641818806
28.9207248151
29.0679315995
29.1234691981
29.1082709862
29.0290271717
28.8734272223
28.6095504982
28.1919634321
27.59429028
26.8520195554
26.0427093097
25.1479873645
23.9029741887
22.1582750156
20.5852131816
19.9417881201
20.4588011017
21.4990941405
22.1708909708
22.2263289474
21.5878357896
19.9608729561
17.4223029328
17.8942378967
31.6946672933
36.6863699619
35.0604176367
32.3685573898
31.455648818
32.0177883276
32.935260607
33.3839892019
33.7595259197
34.2964912287
34.9119498913
35.5857044513
10.9323475091
10.7748244019
14.7686308161
14.1215626669
12.2357599306
11.1230052922
10.6326793236
11.629953898
11.3217674649
15.5001663954
16.1305960233
15.39803316
14.541941005
12.3865132971
12.2151507352
13.8545073579
13.4515383852
13.199409163
13.5620051033
14.314913417
15.4314817019
16.7065363286
18.4127937723
18.2988882693
20.3402101605
22.4187539028
21.5607734724
23.7011252766
24.5478816508
23.8285401795
24.0797064806
23.3002008876
23.4033101261
23.7580022435
24.2695936444
24.8223822878
25.3777808945
25.9477845722
26.5228103161
27.1135517978
27.7099401287
28.2616043869
28.7306446676
29.1072089228
29.3851483236
29.5686300145
29.6793643383
29.7389174622
29.7542616153
29.7163662903
29.6002543393
29.3765123194
29.045566299
28.6530628244
28.1984900321
27.4050643277
25.9045058011
24.2147770376
23.2726371912
23.5211586458
24.9308073038
26.3871362028
27.3166419682
27.5346452209
26.9291499663
25.111255243
21.9078396033
17.1925162701
26.5643641648
37.1909708355
39.8476397738
36.6468216304
35.7779790464
36.2989431665
37.0953042246
37.6569247224
38.7328725265
39.5454620405
39.519542523
39.7413559363
11.541129733
11.4298480455
14.5212900125
14.6178745403
14.6330167027
12.2662907801
11.7028040495
14.4787487802
11.7032302728
16.3612378829
16.6316138188
15.7567344507
14.6377970628
13.0046815954
14.8015781791
14.9088402033
13.6470443006
13.4232160763
13.8143053986
14.4583475279
15.3926120926
16.6979739773
19.6862638444
20.6366869905
19.8367059211
22.4851932427
23.4399439326
23.2787601782
24.515411571
24.9113161204
24.4244616265
23.3371774631
23.6094834625
24.0904453985
24.581431211
25.1131957855
25.6618263733
26.2498034248
26.8492267024
27.4496926253
28.0774644264
28.6857546455
29.2008163844
29.6021147002
29.9063161183
30.1347028086
30.3101454118
30.4507555907
30.5651463665
30.6529876809
30.7067238719
30.7304038089
30.7568987616
30.7925740443
30.6139695169
29.5963495341
28.1283687687
27.8887905531
28.1763317335
29.5236062166
31.5799586526
32.8177600131
32.6503695487
32.1541512806
30.3624156541
27.6237599552
24.318955793
17.9960219598
17.7321111086
31.6136104602
38.487626228
38.7604153332
37.3085423039
39.0051984559
40.6736308531
42.6458750863
44.3997159727
45.0522919637
45.0423901371
45.2385063113
12.2085860981
12.1354980649
11.788104191
14.9493132713
15.1727442241
13.0440202795
12.6662696725
15.4701001807
12.3675814647
17.2507452794
17.0839261836
16.1297512605
14.842980814
13.3238331148
15.9592271008
15.4863864849
14.0880476807
13.8229311605
14.1670181717
14.7713954158
15.4784940418
16.5909165858
20.1962592927
21.7087272298
20.1841687906
22.5215491154
23.9605380449
22.7843879842
24.1465546496
24.4752434107
23.4635665749
23.6877481534
24.0570345542
24.4742730364
24.9258430742
25.4568588495
26.0010565839
26.5636644521
27.1906530917
27.8361094127
28.4869476737
29.1323317913
29.6995564772
30.1438156441
30.4871581346
30.7708714079
31.0192574248
31.2414511512
31.4509898315
31.6620618206
31.8939159648
32.2185255449
32.6950300225
33.1940996904
32.9935789922
31.5031000919
31.2865819141
28.5973530342
25.848136799
24.6704752774
21.7934214066
13.5224395103
0.134094693434
0.013681384948
0.00108569890927
0.000305819477959
0.00359972535995
0.0367803043027
0.415472376302
1.08517549204
40.433655793
48.4621548682
49.3587056207
44.6707929426
40.990407526
43.4438596467
48.471443875
50.4500518836
51.8618212407
52.329703106
13.0559843356
13.1473935901
15.5908809086
15.5975191462
15.6281170978
13.7073446887
13.7111266465
16.3234481308
13.3868830361
18.0228071723
17.5167766127
16.5266343772
15.130080498
13.7209851796
16.2460828751
15.6913298854
14.5270028657
14.2814288641
14.5562007332
15.0915989836
15.7343722583
16.613529357
19.611768778
22.5227636663
22.6794467795
21.9063672073
24.1748188119
24.9790702112
23.0281158082
22.9894500732
23.4058594673
23.926594578
24.4143031303
24.8627064108
25.3285381343
25.8271449484
26.3718196275
26.9506719965
27.5586078865
28.2384795805
28.9414071024
29.623154237
30.2304012902
30.7225847846
31.1236528536
31.4778400209
31.8067276785
32.1128216757
32.4002407767
32.6977976596
33.0999729499
33.7691615266
34.7612664247
35.6301436003
35.0547453719
31.3143534419
21.6706893303
4.5473094985e-05
5.00156889176e-08
9.37615368318e-10
1.58932230276e-11
4.59830375228e-14
1.30673755111e-16
2.26193796785e-21
1.76929458947e-21
4.29544040677e-21
2.89546644516e-20
1.35622031732e-19
5.00988462201e-19
3.18370338522e-18
2.49276868071e-18
2.16261235983e-16
1.23088778299e-13
1.23730487145e-11
9.38905384961e-10
2.16207222414e-07
0.00363944790705
52.8863020756
57.8837288381
59.318663306
13.8534280924
14.0444872118
17.2100734938
16.2739204782
15.7511994027
14.3768479467
14.724104466
17.0458050917
17.018812655
18.9821874237
18.01192595
17.016704456
15.5021864917
14.2630862656
16.5510354244
15.8353051411
14.9492964675
14.7485477439
14.9515363819
15.4055272656
16.0159118668
16.8577607276
19.101533173
22.7848670247
24.0486675355
21.6426235149
23.7036507749
25.0483218539
24.8132279228
23.4339556977
23.4986867176
24.1528643537
24.7771888609
25.2992836489
25.7219509518
26.2273169103
26.7643973315
27.3609051951
27.987102593
28.6757854405
29.4260508743
30.1624616336
30.802687956
31.3262340204
31.7946805924
32.2694915226
32.7186595862
33.0832374371
33.3551781926
33.6886546064
34.2713048367
35.2632290945
36.7408026104
37.9498398423
29.8530411243
6.72997017061e-05
2.51461973614e-11
1.01829964146e-13
2.94475772262e-15
4.28702744635e-17
3.48311920665e-20
5.811918189e-23
4.09684780423e-24
0
0
0
0
0
0
0
0
5.69801663935e-28
1.92182304996e-25
2.87463764884e-23
1.66777270614e-20
2.3294691709e-17
1.26146709276e-12
1.91569006427e-08
0.149354535171
61.9543635116
14.506277705
14.7192927816
19.3590335556
16.7990993778
15.626709877
14.9713703153
15.4530336088
17.1090002744
18.6098510683
20.0863353965
18.6643823203
17.6415371569
16.1245856634
15.0979416629
17.0625095507
16.1325179184
15.4503361762
15.2652809443
15.3868478995
15.7565985066
16.296623216
17.0766533752
18.8959381144
22.661911465
25.0415002789
24.2754875015
23.1938699267
24.4194988288
24.5656228445
23.430640802
23.9501335517
24.632837907
25.3045062149
25.7892921668
26.2295716988
26.6645378795
27.2136383184
27.8009732507
28.4535135705
29.1643064909
29.9377710147
30.7309376456
31.4489277467
32.0050688418
32.5303746751
33.1352251868
33.7186295192
34.1057505173
34.3179496217
34.6562121275
35.3643196902
36.4904987905
38.1274005275
30.3770627094
1.6652090734e-07
3.64059293729e-14
1.19395596897e-17
4.8278648294e-19
6.58264836016e-21
1.80514107775e-23
0
0
0
0
0
0
0
0
0
0
0
0
0
7.34189378896e-27
7.29576816867e-26
1.59939045913e-24
7.75522317213e-23
4.30665338123e-19
3.58470154404e-10
6.91009084414e-15
15.0165249147
15.2190457742
21.4163668877
17.2032712898
15.7568072214
15.5246387494
16.2606858145
16.4818129777
19.5616606498
20.8781074472
19.298314207
18.282066751
16.9464939042
16.9833950877
17.7770930646
16.6715552583
16.1471027139
15.978366539
15.9307445394
16.1950020786
16.6306540029
17.3332876182
18.8805945604
22.524516888
25.4567027584
25.9221193785
22.9865375942
23.3497627433
23.3225246446
23.5524262862
24.2597209494
25.1310627932
25.8055392814
26.3220318439
26.7801655237
27.2884214887
27.7287132297
28.3082419936
28.9625711689
29.6775747852
30.5181178135
31.3806299994
32.1493826646
32.6807318956
33.2119539107
34.4209903899
36.0318695165
36.5776369511
35.7966262384
35.8970875186
36.5967182161
37.7204421329
28.8827468646
1.92653666915e-08
2.9035431268e-13
1.30257509859e-24
1.31626827372e-21
2.14778708196e-23
0
0
0
0
0
0
0
0
0
0
0
0
0
0
0
0
0
0
1.13429957246e-25
7.68128935288e-25
1.41649344151e-22
94.8577987883
15.4636493238
15.6321033095
21.2556246378
16.6486203429
15.9704696914
16.0045323368
17.1780856114
16.4911851812
20.3676170937
21.6166541691
19.9030472806
18.8781844505
17.5857975923
19.2048955459
18.7724795238
17.4146406211
16.9497293066
17.0520157189
16.6972716161
16.8028081894
17.0644426771
17.6318334218
19.0073998981
22.3747588485
25.3302456461
27.0260271817
25.6904422764
24.7107422788
24.3003760809
23.815874645
24.56570736
25.7727111665
26.2596488502
26.8586112652
27.5764700363
27.8994813768
28.3391368093
28.9210673352
29.589866519
30.3079081593
31.1012081931
32.0172634137
32.9226978253
33.8461952545
34.9408499583
36.5023570485
37.7613003393
37.7364395999
37.6523376242
38.2453979136
39.3423956911
32.8216912727
8.76113705271e-08
7.99716859003e-13
1.05108583777e-16
1.4275760313e-18
0
0
0
0
0
0
0
0
0
0
0
0
0
0
0
0
0
0
0
0
0
0
3.49022149866e-25
2.54037035941e-14
15.9797493349
16.1252650252
20.8983125877
16.3326366896
16.2755972744
16.3972463199
17.9678126448
16.9660127072
21.069615067
22.3425822165
20.5062166585
19.4786892646
18.1248047882
19.9633524154
19.6962232464
18.2300025909
17.7410153531
17.9509764814
17.6148462391
17.6320818134
17.6994778217
17.9800776221
19.2950193398
22.3565320123
25.057517331
27.3575902406
26.896503017
25.241587142
23.7369452779
24.329425704
25.0939768365
26.2622526207
27.1295361955
27.8493653851
28.421952967
28.6174462042
29.0335195234
29.6283412775
30.3098158175
31.0586757632
31.8587687843
32.8529086372
34.0879558783
35.6323786749
36.6873770287
37.1056614715
37.789301256
38.2473991216
39.8155515794
41.9587301697
39.0668978529
7.98309960055e-07
1.06000322241e-12
1.8279212109e-16
3.74916053674e-19
9.07743885045e-21
3.04698809831e-23
0
0
0
0
0
0
0
0
0
0
0
0
0
0
0
0
0
0
0
0
0
5.86543461469e-26
7.76050573184e-26
16.7408841797
16.8865795179
20.5797262027
16.6310927633
16.8469810922
16.8902017647
17.9857034338
17.7024896012
21.5782820931
23.0344632286
21.1454148818
20.1306571737
18.7849276806
20.6563779919
20.531331085
19.1373083696
18.5935329338
18.8287994049
18.5107467861
18.6079439735
18.6098098685
18.4892390476
19.7768655917
22.5301415576
24.9331881073
27.4534636033
27.4505335665
25.9746298458
24.2373627333
24.567439725
25.7290951484
26.4277403151
27.1651447509
28.0956336463
29.3614295676
29.6637118938
29.9920542483
30.4429575422
31.083892664
31.9085250765
32.8198097659
33.9473533607
35.891387299
37.6448103726
37.9098983156
38.1531467334
39.2920208075
42.1128659011
45.8404875617
43.4301481012
2.2807964183e-07
3.78880330462e-14
1.56789540724e-18
5.14061447691e-22
3.22545990038e-24
6.53774582593e-24
1.00395380169e-24
0
0
0
0
0
0
0
0
0
0
0
0
0
0
0
0
0
0
0
0
0
4.33531486344e-27
1.96853909123e-26
17.885811475
17.9913777656
20.8816552333
17.5865855398
18.0216403474
17.7574895551
18.3078457949
19.0333471921
21.6353522352
23.5571818589
21.8498123464
20.8557397247
19.553796805
21.4442610943
21.3949206057
20.2081757286
19.6323479102
19.8545207322
19.4152444906
19.6826740007
19.8351909663
19.2278790266
20.3301620224
22.8968092272
25.0018450097
27.3210890579
27.7048966782
26.6287106868
26.263569675
25.4473376961
26.1538701275
27.2674503248
28.5928622365
28.7020815644
29.6150887517
30.7153545684
31.0615604078
31.585464519
32.1186121323
32.8464779056
33.8986933925
35.8498010933
38.5117888803
39.4368383848
39.2963019348
40.4969889683
44.9100386714
51.2314137932
49.1998802157
8.20406365093e-09
5.74024152554e-16
5.35929816017e-21
3.66700847143e-23
0
0
0
0
0
0
0
0
0
0
0
0
0
0
0
0
0
0
0
0
0
0
0
0
0
0
0
19.4825462667
19.356320908
21.7117020781
19.4928164319
19.9935838654
19.0375664105
19.2636187987
20.9562238776
21.8673255112
24.1881964761
22.6727015948
21.6643169015
20.4072121803
22.2702546692
22.254452308
21.3883455875
21.150863261
21.1938906235
20.4130842817
20.8549607783
21.3629063507
20.284266195
20.769212927
23.3516679999
25.2706787337
27.2062774635
27.8923337684
26.799998853
27.4628308756
27.0523626046
27.242364395
27.00603749
28.3261004983
29.9626402853
30.5923327444
31.454992889
32.1328933881
32.6829922935
33.3658264448
34.1134027625
35.6461927016
38.8032601469
41.0664664144
41.4621576885
42.2047114651
46.1033540356
54.5556885244
52.1566511993
9.06342968321
5.12269098499e-18
8.9555450696e-21
4.10062990123e-23
0
0
0
0
0
0
0
0
0
0
0
0
0
0
0
0
0
0
0
0
0
0
0
0
0
0
0
0
21.1739136852
20.6433125972
22.6129036362
22.0146209718
21.7263551313
20.5231179907
20.321207636
22.1121465015
21.1365402703
24.6848832521
23.5963563629
22.548747738
21.3360004546
23.1099885226
23.0549546293
22.3778896755
23.249024083
22.8081552207
21.5364542211
22.150830906
22.7263432923
21.6415407372
20.9537573008
23.3681810439
25.4699774276
27.1316657092
27.9756981525
26.9051462051
27.8706871084
28.3584866636
28.6190124913
27.8068246774
28.6023313646
29.9106240035
31.5421476155
32.6992461276
33.4380118799
33.9532115607
34.6114000903
35.8108034271
38.7305030142
42.124010804
43.8251645907
44.7114765239
47.2311826362
52.9620015288
50.0297228245
25.9481244424
1.37932892266e-17
1.99686962765e-20
6.99342266575e-23
0
0
0
0
0
0
0
0
0
0
0
0
0
0
0
0
0
0
0
0
0
0
0
0
0
0
0
0
0
22.0295051895
21.5557021509
23.2001097724
23.0917322384
22.8212468177
21.9328644503
21.5404899811
23.5133642853
22.2053425228
25.3164112904
24.5315524419
23.4787270817
22.3353993138
23.981135473
23.8681995597
23.2117935095
24.2422431136
23.9409053851
22.6349315319
23.4313125564
23.4963846134
22.4875950463
22.0052222876
22.2345026796
24.9989009447
26.6665338033
27.790821181
26.904268485
27.9695486443
28.9316558812
29.7545531296
29.6531338395
28.9812386751
30.0040556444
31.8140200575
33.604749674
34.860620142
35.6400383247
36.3040039048
38.7270280737
42.5578676838
45.5252476827
46.9652117088
48.6820764503
52.5265267118
47.0514251139
21.7410584615
7.28679410741e-17
6.56394626722e-20
1.86944587908e-22
0
0
0
0
0
0
0
0
0
0
0
0
0
0
0
0
0
0
0
0
0
0
0
0
0
0
0
0
0
0
22.1608830273
22.1414345624
23.572869321
23.3480676313
23.5310230395
23.0358586248
22.6095807108
24.8930009353
23.9140534472
26.1280773517
25.52687842
24.4411899506
23.4007585139
24.8989468524
24.7522662154
24.1767865087
25.0757278153
24.9344895262
23.7869714593
24.4853055796
23.3601433174
23.2759956798
23.075379924
23.3458721471
24.1818867801
25.2020547377
26.9909931259
26.7339044549
27.5769419306
29.0004273654
30.2495993429
31.0413923246
30.5456184822
30.8328215544
32.0520026828
33.815847091
35.7895761854
37.4040883018
38.8850901895
42.494352342
46.3314944115
48.7295307479
49.7723976562
51.3395364091
46.0896059552
26.9131542354
16.6730746173
2.28002330565e-19
5.10746549116e-22
0
0
0
0
0
0
0
0
0
0
0
0
0
0
0
0
0
0
0
0
0
0
0
0
0
0
0
0
0
0
0
22.4526723676
22.5688062276
23.9032783351
22.5349981365
23.8585970588
23.6640460089
23.3430994501
25.5461339802
24.8058567142
26.9601080596
26.5608311054
25.4070967345
24.5386361308
25.8507054092
25.680402178
25.2760747179
26.0008755339
26.0379966495
25.0620403182
25.9171420087
24.7339948409
24.9274162135
24.3587624499
24.663789799
25.9964586895
26.6281660399
26.666012731
26.4984920708
27.1543411797
28.9765201375
30.288766712
31.3358374248
31.9192832104
31.9696781021
33.4262553543
34.5981381644
36.5642654257
39.0619371064
42.1119467303
46.4324079791
49.8186758426
51.3185940073
50.3190734952
45.8529226576
38.2194716308
26.6813395461
1.91322732078e-18
4.35555561529e-21
0
0
0
0
0
0
0
0
0
0
0
0
0
0
0
0
0
0
0
0
0
0
0
0
0
0
0
0
0
0
0
0
23.1939999622
23.2741579826
24.2587721257
22.9855100579
24.1524389354
24.0326634059
23.8722373819
25.7989879054
25.4399274297
27.5894942455
27.5724666138
26.3173585327
25.7349478267
26.7912378043
26.5721467844
26.3428430265
26.8954873772
27.2256549396
26.3829781101
27.3628439957
26.5258064345
26.9982811365
26.7832118794
25.6896098975
26.7858074791
27.7540533887
27.900904286
26.3762232177
26.6708325005
28.9118142175
30.467173988
31.0515418334
31.7895197829
32.3578828432
33.8339359333
35.2897922099
37.4652328888
40.7634437384
45.5298054794
50.4225035204
53.0613795911
52.9453709615
49.5602042072
43.1040128775
26.7008150755
11.3716976876
3.03512238175e-20
1.2307488737e-22
0
0
0
0
0
0
0
0
0
0
0
0
0
0
0
0
0
0
0
0
0
0
0
0
0
0
0
0
0
0
0
0
24.123119252
25.1191311456
24.7676700624
23.9812215065
24.7242644618
24.4594532751
24.3820818923
26.0212704433
26.0175048183
27.8796284225
28.5493935454
27.1326970974
26.798375171
27.5714312193
27.4146053025
27.1619603571
27.2557901535
28.3078714276
27.763657212
28.6305579631
28.478061084
28.3643711361
28.2305995331
27.8633014301
27.1964588139
27.956044596
28.8794172985
25.9747349601
26.228749453
28.2896812225
30.5486530179
31.6327663332
32.5325780459
32.4400888641
33.7629920123
35.5947175761
38.036918447
42.3532823134
48.9147470389
54.2074654343
55.6830021216
51.1354670253
48.0775904236
43.3876601912
31.1607885607
2.05723348249e-19
5.25055466665e-22
0
0
0
0
0
0
0
0
0
0
0
0
0
0
0
0
0
0
0
0
0
0
0
0
0
0
0
0
0
0
0
0
0
24.8351697419
25.8674461665
25.5037692699
24.8834935159
25.448972722
25.0559577655
24.9563442754
26.3200605863
26.5750645133
27.9110393268
29.4185218088
27.9099491107
27.4602117887
28.219658453
28.3153822781
27.9051659044
27.5524714967
29.0893122861
29.1688729428
29.7399881965
29.837000882
30.0050411339
28.8855554842
28.8858213825
28.447569342
29.5836992524
30.2424645442
27.7345848907
25.87282777
27.3642964443
29.9157118547
31.8421413583
32.8360357827
33.0526841482
33.5033333462
35.4508452926
38.0574781544
43.5916839823
52.1204728093
58.0073286435
56.6583097993
50.6432777244