/*--------------------------------*- C++ -*----------------------------------*\
| =========                 |                                                 |
| \\      /  F ield         | OpenFOAM: The Open Source CFD Toolbox           |
|  \\    /   O peration     | Version:  v1806                                 |
|   \\  /    A nd           | Web:      www.OpenFOAM.com                      |
|    \\/     M anipulation  |                                                 |
\*---------------------------------------------------------------------------*/
FoamFile
{
    version     2.0;
    format      ascii;
    class       surfaceScalarField;
    location    "35";
    object      phia;
}
// * * * * * * * * * * * * * * * * * * * * * * * * * * * * * * * * * * * * * //

dimensions      [0 3 -1 0 0 0 0];
oriented        oriented;


internalField   nonuniform List<scalar> 
12640
(
6.81450688364e-07
-7.02477717134e-07
1.38447871789e-06
-7.33968824865e-07
2.1065677078e-06
-7.50067528617e-07
2.77587019677e-06
-6.99293394777e-07
3.23126266919e-06
-4.79535341728e-07
3.31383774108e-06
-9.9276177184e-08
3.14722596986e-06
1.51130734788e-07
3.24022243763e-06
-1.07811530052e-07
3.69579218843e-06
-4.74993764622e-07
4.10683727197e-06
-4.3146057849e-07
4.49773205611e-06
-4.11161398483e-07
5.18561549182e-06
-7.10667257979e-07
5.86356061328e-06
-7.04051033513e-07
6.27335869407e-06
-4.34732364935e-07
6.45870797912e-06
-2.06738611915e-07
6.8405408119e-06
-3.97021333281e-07
7.35364045241e-06
-5.29451487855e-07
7.64943567534e-06
-3.09759844806e-07
7.59480708926e-06
3.84923339702e-08
7.17335533352e-06
3.99698803075e-07
6.77702617081e-06
3.68670456717e-07
6.61635923411e-06
1.32233340174e-07
6.59633967845e-06
-1.70061127182e-08
6.8336295636e-06
-2.7859912976e-07
7.155632691e-06
-3.60091128934e-07
7.39687941754e-06
-2.80216543301e-07
7.84810314906e-06
-4.93643283763e-07
8.39167357301e-06
-5.87073776079e-07
8.80339569128e-06
-4.57205690264e-07
8.9312072383e-06
-1.69312725884e-07
9.15270862729e-06
-2.65419389448e-07
9.46320085877e-06
-3.54593824105e-07
9.27431896854e-06
1.54983314035e-07
8.81429984296e-06
4.29767765009e-07
8.12890696705e-06
6.49022165319e-07
7.13990875664e-06
9.62276534637e-07
6.06966350322e-06
1.03862516933e-06
5.11147291191e-06
9.26590941486e-07
4.2802564724e-06
7.82282419529e-07
3.51485404395e-06
6.56940047771e-07
2.95118649084e-06
4.23284738053e-07
2.46594457027e-06
3.57692403833e-07
1.78504075106e-06
5.55582753049e-07
1.14794008672e-06
5.18202281284e-07
6.13692980049e-07
4.2274766995e-07
2.97829398867e-07
2.06580759194e-07
2.71139911173e-07
-7.59709365817e-08
4.79962852722e-07
-3.12743300947e-07
8.571141837e-07
-4.74728974808e-07
1.35871969873e-06
-5.99670808603e-07
1.94585890617e-06
-7.02577311295e-07
2.41884291098e-06
-6.09198513655e-07
2.3363549468e-06
-4.31303634048e-08
2.3382832339e-06
-1.45963016903e-07
2.33604912611e-06
-8.25001477074e-08
1.67785980577e-06
5.97148510944e-07
1.36852093433e-06
1.07415666413e-07
1.53609029455e-06
-4.21603686048e-07
1.77117536241e-06
-4.82673362688e-07
2.07866528094e-06
-5.62073858323e-07
2.70172310609e-06
-7.93985748435e-07
2.88186771519e-06
-2.83249523531e-07
2.28467491886e-06
4.8386949638e-07
1.95275586094e-06
2.5922928994e-07
1.70740959948e-06
2.00773580481e-07
1.52391497993e-06
1.50702866832e-07
1.34917977483e-06
1.44002816134e-07
1.16627312085e-06
1.47983154805e-07
9.69936110205e-07
1.54503504189e-07
7.60614785346e-07
1.60163070027e-07
5.55008919598e-07
1.52053422058e-07
3.73082665504e-07
1.28279693542e-07
2.22587708568e-07
9.67419474395e-08
1.00165693785e-07
6.81317989129e-08
1.70029503377e-08
3.09663842188e-08
-3.31582199183e-08
3.17283452291e-10
-6.0540118161e-08
-2.32286901142e-08
-5.74647212818e-08
-5.39689984111e-08
-7.44076648972e-08
-7.37780595418e-08
-1.32292297386e-07
3.12067173954e-07
-1.04087599317e-06
7.08520493517e-07
-1.15266854941e-06
1.12879310924e-06
-1.19379928282e-06
1.61815820495e-06
-1.20703745216e-06
2.45882413603e-06
-1.33707421037e-06
3.32684714092e-06
-9.85633842201e-07
3.90803191975e-06
-4.46685942773e-07
4.32839617332e-06
-5.50334474007e-07
4.72460356745e-06
-8.95484505143e-07
5.21142269557e-06
-9.4492735368e-07
5.72899475115e-06
-9.53898390613e-07
6.03397265671e-06
-1.04043006621e-06
6.26783137728e-06
-9.57724307435e-07
6.58363285025e-06
-7.68745210219e-07
6.94432884097e-06
-5.80616164667e-07
7.24031547343e-06
-7.08693526174e-07
7.20083405235e-06
-4.98879910217e-07
6.45402398473e-06
4.2171561429e-07
5.78496419237e-06
6.91400959399e-07
5.54908306347e-06
6.14900567236e-07
5.48642596352e-06
4.04198781514e-07
5.95591126114e-06
-3.77761260059e-07
6.6998671371e-06
-8.00684061458e-07
6.88733615197e-06
-5.09128916024e-07
7.12781083953e-06
-6.39469937017e-07
8.03952022094e-06
-1.23671761987e-06
8.68003702121e-06
-1.17446749077e-06
8.86262850527e-06
-8.12812992718e-07
8.82745475002e-06
-4.60216846826e-07
8.69425523566e-06
-7.56559238204e-08
8.21238515662e-06
1.7842199381e-07
7.61132716886e-06
2.24010558876e-07
6.9869630669e-06
7.54194858118e-07
6.25690703028e-06
1.13382306586e-06
6.15642693687e-06
7.33683125193e-07
5.57913201097e-06
1.50773568891e-06
4.6122217612e-06
1.96741617809e-06
4.32626262725e-06
1.17035579705e-06
4.10427006515e-06
9.4036551473e-07
4.03253218172e-06
6.43462988538e-07
2.93976563286e-06
1.37430458645e-06
1.4222981305e-06
1.66397055136e-06
1.03769631418e-06
7.0242831294e-07
9.02578913009e-07
4.86406460064e-07
7.52225181347e-07
4.23703108573e-07
7.09966791296e-07
1.10969940775e-07
8.13748610625e-07
-3.30799883703e-07
1.10492735263e-06
-7.59610367832e-07
1.54544207351e-06
-1.09403039991e-06
1.9055455523e-06
-1.13828889459e-06
1.92542667978e-06
-9.10647255534e-07
1.83206886781e-06
-7.11009679206e-07
2.99222167767e-06
-1.44573604695e-06
3.64852202695e-06
-1.12048356455e-06
4.56496582237e-06
-1.35420983085e-06
1.38216356335e-05
-9.165226036e-06
2.70627151816e-05
-1.38828447753e-05
3.25333703456e-05
-6.72154918776e-06
2.81835431519e-05
3.12031161177e-06
1.83391146727e-05
8.66965399587e-06
8.78419530783e-06
8.44204866821e-06
4.03523618752e-06
4.31776278864e-06
2.55947328308e-06
1.81647515035e-06
2.05472712733e-06
6.90050943222e-07
1.71780871301e-06
4.93457902629e-07
1.45629142972e-06
3.80663795291e-07
1.27611240899e-06
2.9365943356e-07
1.11909009812e-06
2.70255073431e-07
9.37097998987e-07
2.94628190563e-07
7.29031299483e-07
3.20076227967e-07
5.17384159127e-07
3.11967314977e-07
3.30325878724e-07
2.64056293816e-07
1.82754065318e-07
1.92089823017e-07
7.17462066543e-08
1.23501635404e-07
-1.08232609486e-08
5.68564950844e-08
-6.40625831497e-08
-3.02602151947e-09
-8.83083031893e-08
-5.98713888305e-08
-9.5181873494e-08
-1.1823887364e-07
-7.15256045112e-08
-1.75192263809e-07
-2.78675892366e-07
4.47892678826e-07
-1.49146451293e-06
5.50807629906e-07
-1.27954596255e-06
1.29241498229e-06
-1.95824074553e-06
2.36082984788e-06
-2.29609502069e-06
3.21236924747e-06
-2.20539429369e-06
3.45448450114e-06
-1.24185899489e-06
3.55293735703e-06
-5.65838433567e-07
3.98895250465e-06
-1.01222322201e-06
4.58098626439e-06
-1.51611134961e-06
5.1679196252e-06
-1.560141695e-06
5.68436904537e-06
-1.49342338107e-06
6.01528043619e-06
-1.38662486663e-06
6.22489162123e-06
-1.17796474287e-06
6.38137434279e-06
-9.33898244286e-07
6.19923569934e-06
-4.07545715354e-07
4.96446601712e-06
5.17139074539e-07
3.6178325653e-06
8.36636668883e-07
3.27677470302e-06
7.51259308008e-07
3.34946057045e-06
6.04129307561e-07
3.99452321718e-06
-5.5419920064e-08
5.19373193733e-06
-8.32126784702e-07
5.77465520684e-06
-9.99070200391e-07
5.99165203782e-06
-1.05678135211e-06
6.98051926294e-06
-1.53872099691e-06
8.06835674487e-06
-1.77102468481e-06
8.42067841215e-06
-1.62602067516e-06
8.33166067895e-06
-1.12223244041e-06
8.19850512039e-06
-7.13270916883e-07
7.85461687771e-06
-1.49447181173e-07
7.60552608038e-06
1.39525405819e-07
7.22285041604e-06
5.40351188906e-07
6.57511345584e-06
8.4598848665e-07
6.54536862193e-06
7.69028264861e-07
5.74321841095e-06
1.91790300357e-06
4.63114870406e-06
1.81714576386e-06
4.78432320095e-06
1.30897960664e-06
4.10087912273e-06
2.58963505922e-06
3.51927935357e-06
1.69146688677e-06
4.38821165415e-06
-7.36303548144e-08
1.21194115629e-05
-7.39097359549e-06
3.07197460713e-05
-1.76589048856e-05
5.4098077911e-05
-2.23320386824e-05
6.85639386698e-05
-1.43604855001e-05
7.61495107498e-05
-7.5894357269e-06
8.21404534632e-05
-6.00436670919e-06
8.76391249014e-05
-5.82062942804e-06
9.25592464524e-05
-5.69081942402e-06
9.62712984474e-05
-4.94375138207e-06
9.83178676526e-05
-3.62466960641e-06
9.87768114828e-05
-2.10558104549e-06
9.76503218519e-05
-3.29482439524e-07
9.477422804e-05
1.55278389389e-06
8.94604567577e-05
3.14751126799e-06
8.38178481822e-05
3.660570614e-06
7.77429474713e-05
3.7115572316e-06
6.16552522338e-05
5.98870500694e-06
4.34706260325e-05
3.58547787772e-06
2.91694002516e-05
6.97791068174e-06
1.99376067096e-05
1.19121991751e-05
1.47947473126e-05
1.34799735047e-05
1.08565553519e-05
1.20819057772e-05
6.35924097429e-06
8.55503886714e-06
3.25677008833e-06
4.73213084816e-06
2.03094764172e-06
1.84473809592e-06
1.59416959073e-06
8.88218248282e-07
1.41173070346e-06
5.31341127303e-07
1.23931285813e-06
4.36240369894e-07
1.0484551972e-06
4.28576446502e-07
8.46204962281e-07
4.59098815985e-07
6.31744110991e-07
4.90998023736e-07
4.27538397972e-07
4.69468136384e-07
2.54866171389e-07
3.86923929337e-07
1.1208262485e-07
2.81469395258e-07
4.17702475994e-09
1.76169085104e-07
-7.22077557148e-08
7.71968674685e-08
-1.17676921083e-07
-1.59115222579e-08
-1.33010542064e-07
-1.00451417176e-07
-1.26847123935e-07
-1.79045928432e-07
-7.99209658004e-08
-3.25404105701e-07
-3.79732077606e-07
2.7419807581e-07
-1.79480849344e-06
2.65013592588e-07
-1.28178351515e-06
1.38408781627e-06
-3.1001843546e-06
2.10313459549e-06
-3.03260972961e-06
1.6747903562e-06
-1.78792459887e-06
1.05258486893e-06
-6.26138515447e-07
1.49248494734e-06
-1.0178928892e-06
2.88404358469e-06
-2.43121959397e-06
4.1243241031e-06
-2.7868326978e-06
4.93616757623e-06
-2.39506301196e-06
5.57153155698e-06
-2.14370134584e-06
5.89365568972e-06
-1.71464291783e-06
5.66319184878e-06
-9.48728751259e-07
4.66590835022e-06
6.18180659265e-08
3.53074305945e-06
7.21648454435e-07
3.14725882672e-06
8.87537932533e-07
3.16793994262e-06
8.02105846642e-07
3.55154566396e-06
3.49611176745e-07
4.67849265126e-06
-5.52562123696e-07
5.65312688926e-06
-1.06530911484e-06
5.96368142514e-06
-1.18132360733e-06
6.50029334921e-06
-1.57880271755e-06
7.41480722329e-06
-2.01566918398e-06
7.94980969095e-06
-2.11464493333e-06
8.05161618757e-06
-1.90384178493e-06
7.80936409093e-06
-1.41539389498e-06
7.72782370702e-06
-1.06668411038e-06
7.46888186185e-06
-4.84859181501e-07
7.35815917388e-06
-6.82744485348e-08
7.03562900846e-06
4.39895121958e-07
6.76846818228e-06
7.82398170116e-07
6.54640997191e-06
1.05713871708e-06
5.49919186672e-06
1.79931629107e-06
5.60862709145e-06
1.77731418822e-06
5.41251686515e-06
1.95125073812e-06
4.76862328168e-06
1.89580948722e-06
6.86470161312e-06
4.0041012794e-07
2.13351487511e-05
-1.32315377535e-05
5.10205505841e-05
-3.02997524114e-05
8.13188870754e-05
-3.8223561375e-05
8.90087763249e-05
-2.56943139136e-05
8.70421492833e-05
-2.06381699084e-05
8.7063047789e-05
-1.46342959021e-05
8.92483391997e-05
-1.00239742537e-05
9.15365432189e-05
-8.54030198857e-06
9.32563632207e-05
-7.79548968773e-06
9.39990979005e-05
-6.69770509649e-06
9.34369456506e-05
-4.65709460868e-06
9.13846979218e-05
-1.85443592082e-06
8.78071339415e-05
1.19078403367e-06
8.24907817218e-05
4.70193668091e-06
7.54092597843e-05
8.3366293256e-06
6.65520233903e-05
1.16863425589e-05
5.56984361864e-05
1.41543246591e-05
4.30590997071e-05
1.59412465934e-05
3.03717568094e-05
1.82318852917e-05
1.8873106039e-05
1.47441934491e-05
1.14021144535e-05
1.41923672806e-05
8.95217085937e-06
1.41457656094e-05
8.05098313877e-06
1.41420286731e-05
6.85420235607e-06
1.303025805e-05
4.83448245908e-06
1.03134274267e-05
3.19706819866e-06
6.19811040878e-06
2.04433039659e-06
2.9110443646e-06
1.60159179251e-06
1.28345329332e-06
1.34062733906e-06
7.61055442262e-07
1.14367657688e-06
6.0559866994e-07
9.57454433165e-07
5.8546013382e-07
7.64934338293e-07
6.1804227854e-07
5.55887856884e-07
6.60876371707e-07
3.37333421233e-07
6.4233661144e-07
1.44463650918e-07
5.30485107397e-07
5.05906084223e-09
3.72486666137e-07
-8.98803976976e-08
2.23964341381e-07
-1.54430576134e-07
9.30653188582e-08
-1.81345068213e-07
-3.87471345134e-08
-1.62141653988e-07
-1.66232370597e-07
-1.35691356559e-07
-2.53639364506e-07
-8.10617319192e-08
-4.05053608119e-07
-5.00496429548e-07
-2.25763916579e-08
-1.77041595997e-06
2.96280502389e-07
-1.61497321202e-06
1.30087180948e-06
-4.11482672709e-06
1.41952544302e-06
-3.15526443962e-06
9.37376261892e-07
-1.3122954196e-06
1.11799703053e-06
-8.16255358673e-07
2.1964159892e-06
-2.1183762983e-06
3.46898934742e-06
-3.7305324075e-06
4.16078138554e-06
-3.50277702958e-06
4.70908111159e-06
-2.95700681936e-06
4.99832377959e-06
-2.43562887576e-06
4.53740337661e-06
-1.2529246254e-06
3.61631085443e-06
-2.71361037414e-08
3.18705742148e-06
4.86232043828e-07
3.26110536737e-06
6.33586352082e-07
3.58123419632e-06
5.5125755077e-07
4.27329124075e-06
8.84782346217e-08
5.41642381549e-06
-8.2531859982e-07
5.85849902344e-06
-1.02824990831e-06
5.68309516214e-06
-9.24656966609e-07
6.18923601705e-06
-1.72685227616e-06
7.00942991119e-06
-2.44339908396e-06
7.52558236208e-06
-2.56888120346e-06
7.56628025548e-06
-2.18254640685e-06
7.4295432176e-06
-1.79415208789e-06
7.47833155948e-06
-1.48362849777e-06
7.10981920017e-06
-7.25522145522e-07
6.97186775899e-06
-3.70022163327e-07
6.71563947849e-06
1.66854600132e-07
6.55188932653e-06
5.8289055021e-07
6.37295477978e-06
9.47540918695e-07
6.12440909048e-06
1.29240935473e-06
6.93251696005e-06
9.62634269805e-07
6.49747148623e-06
2.13751720003e-06
6.77549795061e-06
1.60538814995e-06
1.04736539986e-05
-1.92912900331e-06
4.07628028643e-05
-3.04554849653e-05
8.52565082515e-05
-5.84337491969e-05
9.97521286159e-05
-4.51795401008e-05
9.84428666817e-05
-3.71230780421e-05
9.5632223856e-05
-2.30446024868e-05
9.05448420365e-05
-1.57088233744e-05
8.69298645497e-05
-1.11857561094e-05
8.6518939097e-05
-9.78714481867e-06
8.74690832289e-05
-9.67099751795e-06
8.88256311628e-05
-9.33699954429e-06
8.98122109142e-05
-7.8754760533e-06
8.98414081546e-05
-4.88721202105e-06
8.82981351376e-05
-5.09141964749e-07
8.4686557952e-05
4.61121690939e-06
7.88595802159e-05
1.03422115517e-05
7.10037387041e-05
1.60052902103e-05
6.14644088133e-05
2.10341308104e-05
5.05399322632e-05
2.48792318151e-05
3.86586483601e-05
2.75975412198e-05
2.7842831082e-05
2.88144687852e-05
1.86955715251e-05
2.36856030225e-05
1.29394553746e-05
1.97607883114e-05
9.23442198369e-06
1.76437118946e-05
6.32436961446e-06
1.68213530506e-05
4.36207655571e-06
1.47371162043e-05
3.34089496118e-06
1.11341505612e-05
3.40171742561e-06
5.99197804669e-06
1.90186041104e-06
4.32171118933e-06
1.61940249452e-06
1.51777562118e-06
1.37377340918e-06
9.7300368354e-07
1.12062294477e-06
8.31890356379e-07
8.84587033052e-07
7.95861242802e-07
6.6296921978e-07
8.1082514604e-07
4.29554905767e-07
8.58599270276e-07
1.8941729722e-07
8.40876596712e-07
7.95791146628e-09
6.70191187141e-07
-1.1385642874e-07
4.55353657275e-07
-2.08424912575e-07
2.7916544487e-07
-2.65215791637e-07
1.07199213759e-07
-2.67600411857e-07
-7.94380712735e-08
-2.35794775081e-07
-2.29698126532e-07
-1.73846621136e-07
-3.36121843688e-07
-1.01592387953e-07
-5.41094182351e-07
-6.06788581126e-07
-1.27928550339e-08
-1.77219420602e-06
5.52266286863e-07
-2.18368744142e-06
9.5384629552e-07
-4.52359927834e-06
9.13176482527e-07
-3.11920012218e-06
7.37361622662e-07
-1.14179633714e-06
1.47432892078e-06
-1.56663410739e-06
3.00573801887e-06
-3.6726866584e-06
3.73153589936e-06
-4.48227524547e-06
4.02759637465e-06
-3.80717946355e-06
3.97417189239e-06
-2.90667272637e-06
3.41153131149e-06
-1.87158995117e-06
2.65692413455e-06
-4.97278220357e-07
2.54671600956e-06
7.95450190855e-08
2.78015882546e-06
2.41969892057e-07
3.20119937697e-06
1.9739808511e-07
4.04079077725e-06
-3.11359092837e-07
5.30006216494e-06
-1.20004164288e-06
5.53542381068e-06
-1.08853691178e-06
5.11424641828e-06
-6.34650547956e-07
5.74103798774e-06
-1.58674576923e-06
6.62258957976e-06
-2.65093177538e-06
7.00958883215e-06
-2.86449229423e-06
7.09087334233e-06
-2.67897545557e-06
7.20796829495e-06
-2.32282052886e-06
7.27452989894e-06
-1.87635570505e-06
6.59975430072e-06
-8.28153944916e-07
6.44534260494e-06
-5.87614656525e-07
6.18997349698e-06
-1.33286007274e-07
5.98529217418e-06
3.52331941584e-07
5.66158000585e-06
8.91410024863e-07
5.29952959501e-06
1.30024061853e-06
5.30719726411e-06
1.26025867698e-06
5.05019492232e-06
1.167346794e-06
6.69504614588e-06
4.30011162101e-07
1.29884219582e-05
-4.83108560116e-06
5.25071554429e-05
-4.19612770638e-05
9.96362387838e-05
-7.81381903164e-05
0.000107195809942
-6.62788029898e-05
0.000104896577455
-4.30415941454e-05
9.68051988154e-05
-2.91508950261e-05
9.028064927e-05
-1.66294678938e-05
8.59899961471e-05
-1.15345955662e-05
8.50346497864e-05
-1.03568237717e-05
8.71260750033e-05
-1.20134869727e-05
9.09246344149e-05
-1.36084908012e-05
9.50155605729e-05
-1.35710249919e-05
9.80336798889e-05
-1.10411510544e-05
9.89203752284e-05
-5.92111827999e-06
9.70769384206e-05
1.18361463004e-06
9.27109933265e-05
8.83587697715e-06
8.63665719073e-05
1.65515977546e-05
7.86330230364e-05
2.36074508561e-05
7.00174805396e-05
2.95175858836e-05
6.07648044868e-05
3.39976081814e-05
5.1315229368e-05
3.69082817398e-05
4.31354726518e-05
3.68466204246e-05
3.49211431101e-05
3.17451798145e-05
2.82014207285e-05
2.62973699884e-05
2.22156267467e-05
2.34061407069e-05
1.58287199279e-05
2.2927156468e-05
8.23695767483e-06
2.20672562278e-05
3.000332625e-06
1.60665619983e-05
2.4260097161e-06
6.44360647359e-06
1.72501872536e-06
4.89720566123e-06
1.50666249734e-06
1.68168788831e-06
1.34725448064e-06
1.09892734398e-06
1.09311374119e-06
1.05949510042e-06
8.1630487195e-07
1.04796575952e-06
5.49020988615e-07
1.05226941001e-06
2.74770988362e-07
1.10243873178e-06
3.4369200247e-08
1.04716504646e-06
-1.24963264275e-07
7.97109141236e-07
-2.60310122802e-07
5.5871603445e-07
-3.62589659177e-07
3.47162858163e-07
-4.06249237034e-07
1.15021090374e-07
-3.83024614554e-07
-1.34162371023e-07
-3.21200505101e-07
-3.19491370041e-07
-2.43698580167e-07
-4.52584160231e-07
-1.25908108396e-07
-6.63871418642e-07
-7.64290634893e-07
1.86689712076e-07
-1.96156839372e-06
1.09347259371e-06
-3.09886919563e-06
1.36997032098e-06
-4.79641454867e-06
9.18345284809e-07
-2.67037749561e-06
1.01514933739e-06
-1.24619462062e-06
2.34675360994e-06
-2.91731368711e-06
3.40699482773e-06
-4.75870229363e-06
3.7048517915e-06
-4.78527132974e-06
3.4273720936e-06
-3.53667777684e-06
3.29696433221e-06
-2.76837585282e-06
2.81252961281e-06
-1.38438142076e-06
2.4861670363e-06
-1.71995089794e-07
2.64254978144e-06
-8.405317569e-08
2.92204501049e-06
-5.2330443471e-08
3.58936996572e-06
-4.90634270949e-07
4.85072103431e-06
-1.595690876e-06
5.0629203292e-06
-1.4334658421e-06
4.56215381953e-06
-6.08530354101e-07
5.12103691803e-06
-1.22360496549e-06
6.11412806144e-06
-2.6191232515e-06
6.72943653258e-06
-3.29814697317e-06
6.84712604927e-06
-3.01328195532e-06
6.81474683723e-06
-2.66995125974e-06
6.43847655062e-06
-1.95921531567e-06
5.81320636458e-06
-1.26415330056e-06
5.64660793731e-06
-6.74203691809e-07
5.30264705855e-06
-2.59413454684e-07
5.28021829141e-06
-1.27661127575e-07
5.10180466899e-06
5.17256641726e-07
4.82942680435e-06
1.15205017759e-06
4.63550204213e-06
1.47368875629e-06
4.83478305526e-06
1.01241031264e-06
4.98152200406e-06
9.62593192689e-07
1.0558962695e-05
-5.26783300455e-06
5.69427906924e-05
-5.17407533137e-05
0.000107694311867
-9.32013761592e-05
0.000116305985665
-8.695573e-05
0.000108258123162
-5.834823818e-05
9.94293026738e-05
-3.43084465658e-05
9.05034554601e-05
-2.03141571806e-05
8.56983765146e-05
-1.19156528606e-05
8.50710510859e-05
-1.10046402177e-05
8.82837992869e-05
-1.36742480098e-05
9.362143664e-05
-1.74607052372e-05
9.92516015888e-05
-1.93520285856e-05
0.00010340262447
-1.7837220737e-05
0.000104804658188
-1.2559401663e-05
0.000103007645864
-4.248711207e-06
9.83927092176e-05
5.67803866442e-06
9.19052511346e-05
1.52099828777e-05
8.44710143263e-05
2.38782311366e-05
7.68000874746e-05
3.11744361398e-05
6.9570167324e-05
3.66467350194e-05
6.35235708729e-05
3.99436010719e-05
5.95976326409e-05
4.07291189363e-05
5.7752763307e-05
3.85748541875e-05
5.54655848228e-05
3.38952524454e-05
5.26225724802e-05
2.89751853952e-05
4.94485836986e-05
2.63650650908e-05
4.51118444888e-05
2.69672961246e-05
3.73042089537e-05
2.93703591627e-05
2.43966820993e-05
2.8449223857e-05
9.50630166919e-06
2.10476371007e-05
3.11377025547e-06
1.10541031478e-05
1.61145773246e-06
3.11858637445e-06
1.39020810549e-06
1.28550655444e-06
1.11229106027e-06
1.3075609028e-06
7.80284792724e-07
1.35502817472e-06
4.38186132763e-07
1.37036176135e-06
1.24741624611e-07
1.3902657118e-06
-1.00254285951e-07
1.24633636968e-06
-2.84225639271e-07
9.55672131417e-07
-4.52566688114e-07
6.99804105745e-07
-5.57642154693e-07
4.22841470014e-07
-5.79222311357e-07
1.06903451353e-07
-5.38530184764e-07
-2.03825440478e-07
-4.43030559493e-07
-4.40154544315e-07
-3.09048270005e-07
-5.98148455333e-07
-1.91143784818e-07
-8.41264054937e-07
-9.55706453904e-07
3.69236626347e-07
-2.34141287062e-06
1.46987501559e-06
-4.2030692529e-06
1.31878422676e-06
-4.65244376718e-06
6.06060915385e-07
-1.96085319151e-06
1.29829965758e-06
-1.94847231116e-06
2.75596727597e-06
-4.39253949407e-06
3.22579340997e-06
-5.23706037409e-06
3.42384101508e-06
-4.99160290356e-06
2.77926674626e-06
-2.88062049572e-06
2.55838786677e-06
-2.54642886144e-06
2.16176029282e-06
-9.85967301785e-07
2.47757687846e-06
-4.92228350024e-07
2.71440660966e-06
-3.32635794723e-07
3.15909266393e-06
-5.10368337743e-07
4.17868918574e-06
-1.53095301294e-06
4.58848780916e-06
-2.02558698944e-06
4.18943223624e-06
-1.04859910971e-06
4.58129237498e-06
-1.02043752504e-06
5.51103591239e-06
-2.18617810787e-06
6.16784264441e-06
-3.30915518896e-06
6.37452268297e-06
-3.53464127048e-06
6.41471792519e-06
-3.07555385216e-06
6.50402793549e-06
-2.77154178748e-06
6.51197356251e-06
-1.97847732618e-06
5.94752000848e-06
-7.08484114187e-07
5.73050317323e-06
-4.65641525702e-07
5.49161598999e-06
-3.49328415845e-08
4.83032208857e-06
5.20904250193e-07
4.77324220135e-06
5.59726275505e-07
5.3322336703e-06
5.79081126682e-07
5.63004284767e-06
1.12708883931e-06
4.82171354907e-06
1.75684276889e-06
6.14521099097e-06
-4.59922812453e-07
5.51474362607e-05
-5.48554419728e-05
0.000108998171458
-0.000106115282051
0.000123458994623
-0.00010782937584
0.00011413195969
-7.77063938137e-05
0.000101797577728
-4.60813547371e-05
9.19182988164e-05
-2.44991322643e-05
8.5253128986e-05
-1.37230181246e-05
8.38019186029e-05
-1.05427499358e-05
8.64737119556e-05
-1.3759691932e-05
9.17136301815e-05
-1.90020309377e-05
9.7201934897e-05
-2.30402872734e-05
0.000101040937268
-2.32846804325e-05
0.000101984390443
-1.88765197396e-05
9.97190638312e-05
-1.03951884997e-05
9.47892473466e-05
5.82150948081e-07
8.81804296537e-05
1.21819433687e-05
8.05954696704e-05
2.26961560702e-05
7.25048318609e-05
3.18763081865e-05
6.43406317816e-05
3.92502408075e-05
5.65657053341e-05
4.43358377871e-05
4.97819306795e-05
4.66428172033e-05
4.46303712842e-05
4.57927133354e-05
4.12427495591e-05
4.18648194386e-05
3.90300565561e-05
3.59950087812e-05
3.76781178354e-05
3.01975975689e-05
3.75602828581e-05
2.63332149411e-05
3.87690134742e-05
2.55773721938e-05
4.02011955253e-05
2.77214582264e-05
3.7992257426e-05
3.03670058181e-05
2.88098858282e-05
2.98358245183e-05
1.53174027966e-05
2.41813950784e-05
3.17825837063e-06
1.508868503e-05
1.67683651697e-06
2.74177408287e-06
1.15491798303e-06
1.79806884572e-06
7.19800501205e-07
1.75990356281e-06
3.20307836965e-07
1.74742512259e-06
-2.66998575583e-09
1.69335753659e-06
-2.52296855436e-07
1.47651065334e-06
-4.99731109288e-07
1.18196824746e-06
-6.98970171628e-07
8.75491397494e-07
-8.02914824253e-07
5.01445646687e-07
-8.0626235954e-07
8.41182674173e-08
-7.41537770765e-07
-2.93477784036e-07
-6.09410790914e-07
-5.97196493718e-07
-4.25631250472e-07
-8.24010731093e-07
-2.25699154995e-07
-1.03973609045e-06
-1.2151919574e-06
5.47218074001e-07
-2.89657231567e-06
1.60742225542e-06
-5.26671007712e-06
1.04608135664e-06
-4.08872695353e-06
9.34748724896e-07
-1.85285727762e-06
2.0997416736e-06
-3.12087745681e-06
2.67043910196e-06
-4.97657975027e-06
3.03237162066e-06
-5.59920974548e-06
3.0079288743e-06
-4.96084082188e-06
2.7453930988e-06
-2.61703843493e-06
2.61991387504e-06
-2.41533478181e-06
2.44864595454e-06
-8.17059623456e-07
2.66432956098e-06
-7.13493796303e-07
2.9560536554e-06
-6.35505372402e-07
3.6215878515e-06
-1.19582155439e-06
4.76471091936e-06
-2.68622877197e-06
4.68573048293e-06
-1.95742921893e-06
4.4645856918e-06
-8.39974630272e-07
4.92847952168e-06
-1.50990646107e-06
5.66197453285e-06
-2.95049375584e-06
5.96658604608e-06
-3.64089290139e-06
5.85648488973e-06
-3.45060182022e-06
5.52135747851e-06
-2.74823012302e-06
5.19648258622e-06
-2.45244648545e-06
4.95700386123e-06
-1.73915288699e-06
4.97986419831e-06
-7.3261128237e-07
4.97003533359e-06
-4.64081096803e-07
5.46696359223e-06
-5.39740926784e-07
5.83757982689e-06
1.36282676706e-07
6.17976600922e-06
2.10217751713e-07
6.16577455735e-06
5.67853143021e-07
6.62789927928e-06
6.18915715303e-07
7.88992008829e-06
3.93193679207e-07
1.87968292177e-05
-1.17341584166e-05
8.96006424292e-05
-0.000126269534201
0.000125024268005
-0.000141718504758
0.000119659663239
-0.000102523653358
0.000105970514365
-6.40595489161e-05
9.37168182226e-05
-3.38756944457e-05
8.57001320969e-05
-1.6538861243e-05
8.23841681828e-05
-1.04699293528e-05
8.39841635117e-05
-1.22099880764e-05
8.85943468499e-05
-1.84414195567e-05
9.40850679346e-05
-2.4567044659e-05
9.83154017964e-05
-2.73485306816e-05
9.99636384626e-05
-2.50135186129e-05
9.86217081702e-05
-1.76193230838e-05
9.47064859967e-05
-6.56599195417e-06
8.906923769e-05
6.122346311e-06
8.25524190913e-05
1.86016721685e-05
7.55187028275e-05
2.96383278729e-05
6.81416876946e-05
3.91662331598e-05
6.05821591403e-05
4.67276630474e-05
5.3076985068e-05
5.17629469628e-05
4.60382752807e-05
5.36053231705e-05
4.00091877525e-05
5.1743948596e-05
3.54340025213e-05
4.63557027178e-05
3.24457176106e-05
3.88894600576e-05
3.09341339753e-05
3.16022576666e-05
3.09369047565e-05
2.62085950834e-05
3.26113266221e-05
2.37699400298e-05
3.58568885861e-05
2.43345564489e-05
3.90095262112e-05
2.70519806298e-05
3.83009598686e-05
3.03207735296e-05
3.0430655304e-05
3.17310480318e-05
1.604218389e-05
2.9165334678e-05
2.60990164834e-06
1.60468476285e-05
1.18466820893e-06
3.17381870776e-06
6.71003818137e-07
2.24205723758e-06
2.38310256637e-07
2.15215805431e-06
-1.2835313767e-07
2.04081766136e-06
-4.61584156946e-07
1.7921961233e-06
-7.8429999768e-07
1.48604013217e-06
-1.01012869258e-06
1.07996310749e-06
-1.10710952151e-06
5.75166202341e-07
-1.09470890531e-06
4.68351348415e-08
-9.98150761813e-07
-4.16945641217e-07
-8.21328767534e-07
-8.03127957009e-07
-5.48853824093e-07
-1.10785423121e-06
-2.91109911738e-07
-1.36140697266e-06
-1.50542034328e-06
8.0507523484e-07
-3.71067529369e-06
1.72963364779e-06
-6.20322864444e-06
1.03459484784e-06
-3.39596306628e-06
1.25919679368e-06
-2.07871286445e-06
2.39161418996e-06
-4.25894507998e-06
2.20415996933e-06
-4.78184698079e-06
2.70268731655e-06
-6.10232225845e-06
2.23594727417e-06
-4.48617298593e-06
2.37528768417e-06
-2.75577109734e-06
2.1644194319e-06
-2.20465158204e-06
2.43924168477e-06
-1.09344297364e-06
2.75606939681e-06
-1.04073083755e-06
3.11682412081e-06
-1.00690065712e-06
3.90447749815e-06
-1.99207776464e-06
4.30227706021e-06
-3.09885271071e-06
3.8972069043e-06
-1.55843103544e-06
4.28290399642e-06
-1.24003625773e-06
4.92007943342e-06
-2.16848323637e-06
5.51860741342e-06
-3.57303202526e-06
5.86191979061e-06
-4.01086675219e-06
5.66218197579e-06
-3.25159325323e-06
5.64999971249e-06
-2.74611757397e-06
5.37282223764e-06
-2.17067376584e-06
5.00197750561e-06
-1.36616851941e-06
5.39388723629e-06
-1.12736953436e-06
5.17659453245e-06
-2.49046685542e-07
4.46945140915e-06
1.64997861017e-07
4.38721810258e-06
2.15348742701e-07
4.5127494036e-06
7.83036786771e-08
5.45549833888e-06
-3.97720858894e-07
5.78996140466e-06
2.22813602974e-07
6.45260165569e-06
-3.47226819524e-07
7.26425103681e-05
-7.83066077031e-05
0.000125178619991
-0.000179047903478
0.000124003112763
-0.000140594702413
0.000110926678469
-8.94695642144e-05
9.69107298401e-05
-5.00703357575e-05
8.67591799597e-05
-2.37612497953e-05
8.17387497793e-05
-1.15643978621e-05
8.16312195956e-05
-1.0413582483e-05
8.53992413791e-05
-1.60337200308e-05
9.07886179675e-05
-2.38888308993e-05
9.56985819572e-05
-2.95389230627e-05
9.85748082358e-05
-3.02896007773e-05
9.88215948756e-05
-2.53285098667e-05
9.66636617647e-05
-1.55337085171e-05
9.28006068092e-05
-2.78135855197e-06
8.79920526422e-05
1.0851352856e-05
8.27380092613e-05
2.37707973738e-05
7.71495005088e-05
3.514444163e-05
7.11697968514e-05
4.50690626349e-05
6.46647028881e-05
5.31606915963e-05
5.76584733811e-05
5.86999997485e-05
5.04815923219e-05
6.07158963305e-05
4.3857051635e-05
5.8303074746e-05
3.87670629773e-05
5.13776945538e-05
3.57985109524e-05
4.17832522316e-05
3.45586981072e-05
3.27554495055e-05
3.46063695613e-05
2.60604012521e-05
3.54367315245e-05
2.28275608395e-05
3.68046432275e-05
2.28518513132e-05
3.83977002363e-05
2.53432386528e-05
3.94514109611e-05
2.91334757762e-05
3.84130814762e-05
3.25868954296e-05
3.30295686966e-05
3.43061591358e-05
1.62226736877e-05
3.25878375557e-05
2.88840552698e-06
1.63938392322e-05
6.77239432886e-07
4.40269761232e-06
1.85809243222e-07
2.61966434356e-06
-2.84093180569e-07
2.4911738359e-06
-7.445016114e-07
2.23599259051e-06
-1.14885609348e-06
1.87353046688e-06
-1.39831261207e-06
1.31197871091e-06
-1.48810586524e-06
6.44553462423e-07
-1.45005617876e-06
-1.44418541023e-08
-1.29837871183e-06
-5.94525678759e-07
-1.04177333771e-06
-1.08565161427e-06
-7.15254011967e-07
-1.48131938965e-06
-3.38986529404e-07
-1.73266200767e-06
-1.87537562601e-06
9.2988136086e-07
-4.64672388394e-06
1.44607198665e-06
-6.71060345514e-06
1.1044075469e-06
-3.05239141235e-06
1.83901718677e-06