/*--------------------------------*- C++ -*----------------------------------*\
| =========                 |                                                 |
| \\      /  F ield         | OpenFOAM: The Open Source CFD Toolbox           |
|  \\    /   O peration     | Version:  v1806                                 |
|   \\  /    A nd           | Web:      www.OpenFOAM.com                      |
|    \\/     M anipulation  |                                                 |
\*---------------------------------------------------------------------------*/
FoamFile
{
    version     2.0;
    format      ascii;
    class       volScalarField;
    location    "629";
    object      p;
}
// * * * * * * * * * * * * * * * * * * * * * * * * * * * * * * * * * * * * * //

dimensions      [0 2 -2 0 0 0 0];


internalField   nonuniform List<scalar> 
6400
(
0.148136799153
0.148139779067
0.148148286902
0.148164921066
0.148189619916
0.148222323032
0.148263015308
0.148312772364
0.14837248464
0.148443612519
0.148532157718
0.148641303588
0.148768362097
0.148913264647
0.149077901121
0.149264757682
0.149475409416
0.149709769395
0.149965781276
0.150238128474
0.15052117009
0.150816230401
0.151130586568
0.151471938413
0.151845121814
0.152250017386
0.152683163425
0.153141928141
0.153625875356
0.154135605615
0.154671530913
0.155231723438
0.155810169331
0.156400755522
0.157000722101
0.157607203521
0.15822041773
0.15884648747
0.159484086344
0.160123986238
0.160767134142
0.161426279815
0.162107973513
0.162804126956
0.16350374353
0.164199258189
0.164884933963
0.165556420848
0.166209770556
0.166841559912
0.167449020627
0.168026921155
0.168566585145
0.169057215544
0.169497041894
0.169891322916
0.170236313185
0.170522555908
0.17074797855
0.170920729188
0.171047899248
0.171134354979
0.171184476512
0.171212496815
0.17123024755
0.171238694495
0.171230171632
0.171203688109
0.171165659181
0.171121914892
0.171074756656
0.171024163522
0.170970190759
0.170917404651
0.170866720679
0.170820600471
0.170780994099
0.170754516444
0.170737300251
0.170730002242
0.148132453344
0.148135621386
0.148143348887
0.148159598477
0.14818576666
0.148219891638
0.148261047648
0.148309122246
0.14836687738
0.148437813052
0.148526008495
0.14863410396
0.148761428796
0.148907256685
0.149072066072
0.149257570771
0.149467463881
0.14970248999
0.149959845712
0.150232807994
0.150513923793
0.150806826906
0.151120513151
0.151461796888
0.15183540276
0.152241045334
0.152674494597
0.153133839343
0.153618728525
0.154129200159
0.154665197448
0.155225800477
0.155805233801
0.156395903013
0.156995971242
0.157602693389
0.158215743242
0.158842278727
0.159481018359
0.160121679112
0.160763957964
0.161423500306
0.162108636911
0.162807395091
0.163508321385
0.164205283935
0.164892481539
0.165565830372
0.166220940268
0.166853065793
0.167459423843
0.168038405035
0.168583205121
0.169076156546
0.16951767786
0.169914983565
0.170258447087
0.170541545004
0.170766515355
0.170938395303
0.1710627693
0.171148665666
0.171199344913
0.1712284461
0.171247823458
0.17125731863
0.171248011887
0.171218390996
0.171176715534
0.171129524365
0.171079208661
0.171025473608
0.170967971733
0.170911298055
0.17085894828
0.170812636119
0.170774920926
0.170748589756
0.170731556
0.170725812939
0.148120229018
0.148125463041
0.148132475382
0.148147425422
0.148172732909
0.148210697889
0.148255195949
0.14830187182
0.148356825727
0.148426180413
0.148513556872
0.148621075289
0.148748638637
0.148895229436
0.149060088933
0.149242233541
0.149449777123
0.149689586336
0.149950029177
0.150221642393
0.15049858039
0.150786170579
0.151098723217
0.151442271457
0.151816753582
0.152222224238
0.152656858669
0.153117996268
0.153604439553
0.154116188001
0.154652982168
0.155214610087
0.155796141529
0.156386455417
0.156985229935
0.157593646141
0.158206864468
0.158832520603
0.159472444958
0.160116251526
0.160764703843
0.161428891477
0.162113940956
0.162812556084
0.163514940648
0.164214055473
0.16490429354
0.165580997885
0.166239698505
0.166876191484
0.167487078715
0.168068146655
0.168611292566
0.169107784029
0.169557166167
0.169956439022
0.170297814192
0.170579147922
0.170802676942
0.170972896507
0.171096352678
0.171180115422
0.171230762454
0.171264111572
0.171288775024
0.171298666712
0.171285870583
0.171250547021
0.171201206482
0.171146017674
0.171087844163
0.171026338931
0.170963225881
0.170902805362
0.170847416952
0.170799858541
0.170762974497
0.17073708718
0.170720896463
0.170715015854
0.148102767933
0.148108135498
0.148114117709
0.148127905729
0.148150230131
0.148188094509
0.148244208331
0.148291033543
0.148341910357
0.148408508322
0.148494530531
0.148601710099
0.148729850024
0.148876396997
0.149041170913
0.149227645994
0.149439400687
0.149676505453
0.149928743154
0.150189169036
0.150461889368
0.150752961695
0.151067918456
0.151412051143
0.151787601647
0.152194497891
0.152630975153
0.153094276187
0.153582957396
0.154096473854
0.154635279728
0.155198427145
0.155781476563
0.156374902705
0.156971155578
0.157576526593
0.158193192851
0.158819361078
0.159457513712
0.160105327769
0.160761966928
0.161432703933
0.162120613629
0.162821039017
0.163526087962
0.164228782798
0.164923337895
0.165604809658
0.166268642388
0.166910556429
0.167526439355
0.168111248755
0.168658093494
0.16916049603
0.169614700672
0.170015348624
0.170356537323
0.17063679722
0.170858641501
0.171026987071
0.171148715516
0.171231877461
0.171286920371
0.171328513553
0.171358036974
0.17136604616
0.171347298988
0.171302144691
0.171239964936
0.171171442696
0.17110150005
0.171030512661
0.170959580486
0.170890187991
0.170827217067
0.17077783622
0.170742497682
0.170715401975
0.17069692515
0.170689414775
0.14807538491
0.148076568471
0.148083922241
0.148098118174
0.148122941508
0.148158762197
0.148210279725
0.148261538341
0.148315635397
0.148382813845
0.148467796118
0.148574867363
0.148704147591
0.148856113566
0.149028372056
0.149215665932
0.149420700949
0.14964485556
0.149886182156
0.150143657131
0.150417607703
0.150710036914
0.151026480169
0.151372171802
0.151749231472
0.152157931792
0.152596395946
0.153062415777
0.153553955574
0.154070449649
0.154611288374
0.155177962108
0.155765091622
0.156356144982
0.156951233792
0.157555153756
0.158169571201
0.158797805967
0.159439738149
0.160093257431
0.160757726076
0.161435625718
0.162128338779
0.162832494245
0.163541707676
0.16424938048
0.164949629887
0.165637309502
0.166307750107
0.1669565134
0.167579033938
0.168169963466
0.168723000509
0.169231999892
0.169691320965
0.170094528148
0.170436503749
0.170716455612
0.170937431716
0.171105146542
0.171227513715
0.171314124039
0.171376517228
0.171424709948
0.171453229571
0.17145942184
0.171435704465
0.171378590375
0.171298124525
0.171209601947
0.171122209066
0.171036270207
0.170948999897
0.170863733791
0.170792954789
0.170741424196
0.170703477657
0.170670700527
0.170650991945
0.170644358729
0.148025564443
0.148025710569
0.148037782565
0.148052633319
0.14808019324
0.148118343597
0.14816663033
0.148218732674
0.148277494399
0.14834695059
0.148430609498
0.148538334286
0.148676475714
0.148837100563
0.149008781426
0.149190058499
0.149385266689
0.149600316489
0.149836767253
0.150092062174
0.15036410227
0.150656610882
0.150974743837
0.151322573306
0.151701731284
0.152112022479
0.152553236404
0.153022145878
0.153517651872
0.154037797339
0.154583080183
0.155151839387
0.155738645861
0.156333385909
0.156924974671
0.157524286899
0.158139556761
0.158771737767
0.159419032765
0.160079340128
0.160751904395
0.161437689258
0.162136913062
0.162846735979
0.163561797863
0.164275962699
0.164983371918
0.165678762275
0.166357370393
0.167014620878
0.167645691489
0.168245081547
0.168806552134
0.169323496333
0.169789000812
0.170196210837
0.170540708777
0.170822427444
0.171045144616
0.171215540883
0.171342453127
0.171436237845
0.171507825106
0.171557684676
0.171585272989
0.171587233135
0.171555924492
0.17148420833
0.171380156746
0.171264105539
0.171150794777
0.171038092648
0.170922783933
0.170818948052
0.170739502969
0.170683161493
0.170638496356
0.170602973802
0.170584285455
0.170576905044
0.147949700309
0.147955579404
0.147975302237
0.147997169012
0.148021261738
0.148060022963
0.148110337711
0.14816468878
0.148227011171
0.14829930936
0.148387147287
0.148498709859
0.148644670221
0.148804774776
0.148971984162
0.149145296074
0.149334132642
0.149546725308
0.149781163374
0.150031400941
0.15030056058
0.150593594311
0.150913198716
0.151262636257
0.151644175614
0.152058432414
0.152500868735
0.152973326767
0.15347353311
0.154000826812
0.15455021597
0.155119161641
0.155706620445
0.156296589746
0.156887077765
0.157486530815
0.158104619659
0.158741788415
0.159395438013
0.160063303249
0.160744463579
0.161438983227
0.162146268645
0.162863623738
0.163586312681
0.16430861073
0.165024768248
0.165729502728
0.166418015385
0.167085653322
0.167727439753
0.168337691279
0.168909870266
0.169436675039
0.169910396183
0.17032420732
0.170674440838
0.170961788594
0.171190584712
0.171367827911
0.171502630593
0.171605333124
0.171683163518
0.171734109439
0.17176913058
0.171767662213
0.171720291708
0.171625513241
0.171491126955
0.171338489949
0.171184068564
0.171027078903
0.170874309952
0.170749159127
0.170658285396
0.170594079751
0.17054362864
0.170510974967
0.170496845154
0.170490336067
0.14785995037
0.147871319787
0.147893897531
0.147925136464
0.14795178535
0.147992306737
0.148041371328
0.148098626181
0.148165508095
0.148236063708
0.14833227677
0.148456486091
0.148600945357
0.148757830894
0.148918334012
0.149084545759
0.14927246285
0.149485615379
0.149715207162
0.149960438116
0.150227352758
0.150520435587
0.150841338248
0.151193497368
0.151578373886
0.151995632204
0.152442274698
0.152914712154
0.153422450636
0.153959415904
0.154510481634
0.155076411804
0.155661785662
0.156249153383
0.156838176076
0.157441930507
0.158065170283
0.158708117252
0.159368742569
0.160044865445
0.16073531272
0.161439539966
0.162156379415
0.162883076726
0.163615226689
0.1643474223
0.165074077261
0.165789981384
0.166490369077
0.167170565406
0.167825486407
0.168449220318
0.169034790311
0.169574267959
0.170059584427
0.170484281081
0.170845413923
0.171143927381
0.171383441486
0.171570005476
0.171712595337
0.171821487671
0.171903138501
0.171961113108
0.172000484361
0.172008452772
0.171943707438
0.171815863672
0.171639840507
0.171434629462
0.171217273341
0.170995225607
0.170794915619
0.170642061703
0.170536864093
0.170465634217
0.170419764928
0.170396868869
0.17039248168
0.170391676442
0.147760956855
0.147775606631
0.147798634754
0.147825738554
0.147859457723
0.147908408412
0.147957989928
0.148017084957
0.148091851981
0.148167933722
0.148262277134
0.148395293052
0.148542619021
0.148694104495
0.148848812685
0.149014715211
0.149202065388
0.149412295502
0.149637347571
0.149879726659
0.150145008359
0.150437227955
0.150757861229
0.151111718322
0.151504226023
0.151923227277
0.152374500112
0.152855005518
0.153364382959
0.153902573645
0.154459397022
0.155031006617
0.15560530811
0.156187767302
0.15678120548
0.157391194998
0.158020795436
0.158670391301
0.159338660221
0.16002375147
0.160724316755
0.161439339598
0.162167212639
0.16290503802
0.163648540838
0.164392535059
0.165131633946
0.165860777091
0.1665752892
0.167270519161
0.167941322616
0.168581588563
0.169183974845
0.169740208361
0.170242287113
0.17068428045
0.17106343197
0.171379395619
0.171632665437
0.171827933555
0.171976264868
0.172091300961
0.172180140591
0.172243283762
0.172278495875
0.172292952917
0.172241050524
0.172073253314
0.171841087137
0.171562099429
0.171250283197
0.170933769389
0.170667459188
0.170477449816
0.170357950404
0.170291223052
0.170265750083
0.170264229663
0.17027496814
0.170283786148
0.14765111736
0.147667870657
0.147694685069
0.147720959266
0.147757371867
0.147806906149
0.147858771707
0.147918229772
0.147993308567
0.148085848621
0.148185387479
0.14831878185
0.148467080831
0.148614930356
0.148764112513
0.148932764649
0.149123315108
0.149328522609
0.149548114487
0.149788060774
0.150052915984
0.150345395741
0.150666171905
0.151018653953
0.15141755898
0.151845249429
0.152293296307
0.152781065915
0.15329572666
0.153838445779
0.15439823365
0.154967454506
0.15554043072
0.156119792069
0.156717039829
0.157334026111
0.157971022932
0.158628211559
0.159304882307
0.159999675669
0.160711262126
0.161438272714
0.162178701615
0.162929452178
0.163686274064
0.164444136051
0.165197863719
0.165942603093
0.166673815946
0.167386918438
0.168076787339
0.168737268103
0.169360945992
0.169939665675
0.170465890764
0.170933992441
0.171339897477
0.17167917374
0.171946498424
0.172148434171
0.172302596309
0.172429055561
0.172530284079
0.172596428056
0.172620742117
0.172610475266
0.172562718328
0.172423132782
0.172120401899
0.171736797441
0.171287251604
0.170825881415
0.170459299576
0.170220608458
0.170095798317
0.170058374534
0.170076208642
0.170111998184
0.170144606105
0.170165798702
0.147525657634
0.147541625057
0.147570810141
0.147602117562
0.147646816577
0.147691312934
0.147743987298
0.147805987502
0.147873901069
0.147975304101
0.148088772483
0.148223014954
0.148371690982
0.1485201069
0.14866854836
0.148837905061
0.149029895638
0.149231984413
0.149447507398
0.149684164657
0.149948015818
0.150242276985
0.150568010804
0.150920384521
0.151314415402
0.151755242448
0.152211843827
0.152699316511
0.153215691761
0.153753097489
0.154320029518
0.154891921683
0.155462642578
0.156043725077
0.156646187707
0.15727040006
0.157915443253
0.158581147395
0.159267085439
0.159972361042
0.160695892963
0.161436139306
0.162190709583
0.162956241792
0.163728447975
0.164502437156
0.165273268423
0.166036312527
0.166787183824
0.167521419752
0.168234065704
0.168919230153
0.169569962911
0.170178900888
0.170739281545
0.171244761686
0.171686793011
0.172054900962
0.17233682334
0.172546147793
0.172708759118
0.172858158252
0.172983583515
0.173055069584
0.173056218568
0.172996596148
0.172900972725
0.172784073361
0.172507200251
0.172010776944
0.171350816025
0.170635906745
0.170108828444
0.169813367001
0.169711381742
0.169745771578
0.16984566845
0.169942070366
0.17000588092
0.170045458155
0.147380877714
0.147393526181
0.147416775185
0.147456699297
0.14751186955
0.147556947212
0.14761100563
0.147679300949
0.147745963445
0.147844196553
0.147968416534
0.148106212263
0.148254636683
0.148405246032
0.148560580718
0.148732520262
0.14892314944
0.149122231418
0.149335294792
0.149568861659
0.14982896609
0.150121101417
0.150456127556
0.150820290241
0.151209068458
0.151649882582
0.152115300542
0.152600556133
0.153126834617
0.15366978048
0.154228656806
0.154796276003
0.155369008768
0.155958121315
0.156567942292
0.15719986762
0.15785355199
0.158528672228
0.159224872431
0.15994152139
0.16067791815
0.161432654476
0.162203021965
0.162985277862
0.163775056297
0.164567652487
0.165358396706
0.166142866717
0.166916798759
0.16767590036
0.168415595205
0.169130742276
0.16981571502
0.170464887642
0.171072254013
0.171627996163
0.172114983141
0.172524645446
0.172828864432
0.173049069975
0.173215198303
0.173408620678
0.173590030793
0.17368227543
0.173649188263
0.17351663223
0.173333334428
0.173165867055
0.172945658582
0.172449706283
0.171516931784
0.170280685111
0.169480257117
0.169144353421
0.169136325491
0.16932625639
0.169582672198
0.169776906396
0.169875939665
0.169948014873
0.147216378887
0.147226160214
0.147240633211
0.147285308125
0.147341589043
0.147394512626
0.147452742906
0.147528100304
0.147602336086
0.147699723903
0.147828650429
0.14796893622
0.148116774611
0.148265887418
0.148430414704
0.148612071199
0.148801947138
0.148998594768
0.149210439891
0.149442500625
0.149698741045
0.14998435375
0.150319810144
0.15070492287
0.151100560938
0.151530035024
0.152007150035
0.152498786808
0.153016813815
0.153563901966
0.15412470381
0.15469050138
0.155265596831
0.155862246818
0.156480800963
0.157121574236
0.157784677132
0.158470018396
0.159177561477
0.159906783622
0.160657118805
0.161427525565
0.162215306294
0.16301632343
0.163826021875
0.164639946411
0.165453787339
0.166263282915
0.167064176258
0.167852343335
0.16862385208
0.169375010352
0.170102746732
0.170804357019
0.171473717499
0.172092253351
0.172633363652
0.173134881655
0.173489271152
0.173726644375
0.173858180739
0.17418971847
0.174531304388
0.174684655556
0.174564532297
0.174276091278
0.173925994363
0.173617606635
0.173397552038
0.173167392487
0.171902173635
0.169633107316
0.168437819221
0.16811244429
0.168309769157
0.168793597544
0.169341970527
0.169680649774
0.169768892123
0.169909943472
0.14703320305
0.147044475308
0.147064009544
0.147098006751
0.1471488735
0.147207044336
0.147270657371
0.147349870897
0.147436425407
0.147536562159
0.147669205232
0.14781177687
0.147960452172
0.148108949758
0.148276003489
0.148466794137
0.148660538564
0.148858631132
0.14907102304
0.149303120297
0.149557696453
0.149837762659
0.150168256427
0.150565044471
0.15097682988
0.151404011292
0.151884543884
0.152385027654
0.152898951348
0.153443019269
0.15399879052
0.154564837979
0.155149778833
0.155755908327
0.156383891135
0.157034446514
0.157708097325
0.158404656059
0.159124342853
0.159867294245
0.160633019855
0.161420505021
0.162227261728
0.163049031899
0.163881107326
0.16471933966
0.165559883611
0.166398538263
0.167230803935
0.168052639441
0.168861035795
0.169654643333
0.170434441201
0.171201958154
0.171948292075
0.172640781841
0.173268173396
0.174036757864
0.174402776602
0.174578117301
0.17421409352
0.174057638435
0.174235828604
0.174412317894
0.174354149211
0.174138048753
0.173888124001
0.173683600291
0.173606230104
0.17396550938
0.173583473341
0.167662985903
0.165785780781
0.166032137643
0.166942740253
0.168053777631
0.169253406904
0.169767562122
0.169669382532
0.170001977487
0.146826879857
0.146839687391
0.146869200308
0.146893520164
0.146937977142
0.146997737385
0.147065751639
0.147150328038
0.147251628616
0.147354080756
0.147489334882
0.147634577372
0.14778565775
0.147936904423
0.148106041502
0.148301159968
0.1484991371
0.148701047972
0.148915795281
0.149148924043
0.149403681719
0.149682037101
0.150003846762
0.150398274261
0.150834774664
0.151270612525
0.151739636432
0.152255540921
0.152779017466
0.153307603687
0.153857027345
0.154427655323
0.155021198465
0.155637426901
0.156276040934
0.156937524992
0.157622560017
0.158331563699
0.1590646869
0.159822339708
0.160604758027
0.161411006701
0.162238527926
0.163083031985
0.163939906244
0.164805573869
0.165676833737
0.166549408478
0.167418024131
0.168278299276
0.169128636443
0.169971095373
0.170811759601
0.171656812738
0.172495706757
0.173300735146
0.173720019836
0.173927588371
0.174155146723
0.174317424679
0.17430128394
0.174206272632
0.174211918812
0.174265878208
0.174172947072
0.173940835751
0.173646781902
0.173338771234
0.172973596384
0.172346170999
0.170113481347
0.167445921409
0.166508202445
0.166812876064
0.167666057567
0.168792691178
0.17006626176
0.170822810986
0.16899302981
0.170314411824
0.146593186419
0.146605517157
0.146634121271
0.146660709206
0.146702990676
0.146764542251
0.146835113942
0.146920534951
0.147035927922
0.147149321754
0.147287044301
0.147435878126
0.147591159562
0.147748007837
0.147921044191
0.148118415085
0.148319678134
0.148526159398
0.148744362751
0.148979391705
0.14923488787
0.149513679958
0.149829795333
0.150216634592
0.150668954292
0.151123366403
0.151585236016
0.152094470387
0.152628310316
0.153162170027
0.153707257546
0.15427951902
0.154880289434
0.155506685973
0.156156570659
0.156829730488
0.157527178143
0.15824955537
0.158997409986
0.159771174309
0.160571542398
0.161398172503
0.162248485228
0.163117848063
0.164001751638
0.164897879453
0.165804424699
0.166716576902
0.167626700233
0.168529776058
0.16942709992
0.170324361691
0.171231102063
0.172162292256
0.173075798783
0.173273016355
0.173513183933
0.173780939292
0.173997823051
0.174137357131
0.174135226294
0.174033505845
0.173945815034
0.173867965127
0.173698859281
0.1734131522
0.173040565916
0.172595631887
0.172022097359
0.171122767495
0.169595342084
0.167978217693
0.166986027464
0.166857328043
0.167360789405
0.168235588565
0.169201255603
0.169616796372
0.170658538061
0.172165495502
0.146333980353
0.146345600136
0.146375556957
0.146403039125
0.146446205288
0.146508654163
0.146581394719
0.146664595563
0.146783159726
0.146912899328
0.147058111483
0.147212302767
0.147373731633
0.147540230681
0.147718150176
0.147917871549
0.1481224012
0.148334067666
0.148556461144
0.148794243418
0.149051057102
0.149330333412
0.149643003573
0.150020548331
0.150473950045
0.15095631826
0.15142835463
0.151924812632
0.152453417166
0.152989556057
0.153538006049
0.154116909275
0.154725958431
0.155362510678
0.156024228294
0.156710206122
0.157420938183
0.158157726932
0.158921390183
0.15971269095
0.160532456523
0.161380908205
0.162256041677
0.163152800539
0.164066164385
0.16499551413
0.16594169158
0.166899138705
0.16785607515
0.168806361643
0.169756024206
0.170713023785
0.171691518475
0.17263587582
0.172882835206
0.173116972706
0.173341707822
0.173569134901
0.173738374411
0.173822108055
0.173796627665
0.173681065315
0.17352404103
0.173329841157
0.173055055839
0.17267354208
0.172188614215
0.171598887313
0.170875464048
0.169916331283
0.168612895437
0.167180691124
0.166124534131
0.165742905978
0.165961693828
0.166601815639
0.167550762367
0.168799035343
0.170838096767
0.173069288506
0.146051812266
0.146061872158
0.146087633202
0.146119127534
0.146167879297
0.146231562336
0.146308163543
0.146391171299
0.146509634689
0.14664964709
0.146801897014
0.146961186694
0.147127545489
0.147307079208
0.147493657939
0.147696172313
0.147904790469
0.14812323237
0.148351046378
0.14859259254
0.148851533435
0.149131450532
0.149441954569
0.14981175359
0.150260070097
0.150760546321
0.15125444448
0.151747702786
0.152265426325
0.1527980957
0.153351596878
0.153937687821
0.154555600468
0.155202427401
0.155876684508
0.156576929429
0.157302556661
0.15805475003
0.158835522769
0.159645586442
0.160486149415
0.161358283718
0.162260498894
0.163187230269
0.16413152779
0.16509541578
0.166087532194
0.167100411883
0.168108470594
0.169107289141
0.170113348087
0.171141578645
0.172125875469
0.172411330783
0.172670288503
0.172899363333
0.173100325225
0.17326848536
0.173372217348
0.173387688516
0.17330198599
0.173121763631
0.172867805044
0.172545799264
0.172137449463
0.171623519814
0.170996705806
0.17024952323
0.169361738856
0.168306527695
0.167026823475
0.165632021548
0.164463821714
0.163749921021
0.163501770888
0.163662351983
0.164258965882
0.165438016184
0.167782108603
0.169786164332
0.145750105165
0.145758870714
0.145779049807
0.145815140699
0.145868739718
0.145933496047
0.14601331609
0.146100540953
0.146216581725
0.146362405727
0.146519691519
0.14668299732
0.146851679879
0.147039526583
0.147240635364
0.14744898635
0.147662762311
0.147889113942
0.148125135222
0.148372475228
0.148635172559
0.148916122889
0.149225607977
0.149589358726
0.150027540973
0.15052781841
0.151044815981
0.151551488838
0.152066905263
0.152597143558
0.153150461359
0.153741856012
0.154368521408
0.155024512365
0.15571237688
0.156428260011
0.157169326934
0.157938491087
0.158737946911
0.159568767975
0.160431813694
0.161328657006
0.162259117713
0.163219205756
0.164203320417
0.165213164661
0.166254130096
0.167312784779
0.168370431842
0.16942642918
0.170500006644
0.171567985148
0.171880128859
0.172151419674
0.172399020221
0.172604481321
0.172757949633
0.172851748366
0.172868405222
0.172791152157
0.172611281257
0.172330673395
0.171958095706
0.171496572691
0.170937040303
0.170266216379
0.169474321771
0.168552402917
0.167487984485
0.166270160341
0.164896065715
0.163390383816
0.161921705797
0.160668659865
0.159655949025
0.15882391357
0.158109001007
0.15735673418
0.156137438629
0.153440171438
0.145430232637
0.145438811616
0.145457504829
0.145497987601
0.1455519934
0.145615638592
0.145694181736
0.145787355822
0.145900909602
0.146050236708
0.1462118066
0.146379110501
0.146551157253
0.146742023172
0.146955792306
0.147173849258
0.147394997741
0.147628941777
0.147874237705
0.148130286741
0.148399833238
0.148683123899
0.148992550844
0.149352664695
0.149781434081
0.150275258943
0.150803070804
0.151326141177
0.151842256891
0.152372006791
0.152931801527
0.153526837875
0.154160051455
0.154827145085
0.155529326428
0.156261313642
0.157019318461
0.157806876493
0.158626390992
0.159479445259
0.16036706866
0.161291121583
0.162254281659
0.163256967517
0.164291055675
0.165345702329
0.166424566153
0.167527073352
0.16865041039
0.169777383887
0.170945209898
0.171289108624
0.171571824904
0.171833554976
0.172051688041
0.172206020891
0.172287310314
0.172288365254
0.172198291498
0.172006253505
0.171706079225
0.171297372017
0.17078304733
0.170163446461
0.169432565717
0.168580372925
0.167596664947
0.166471389874
0.165193933212
0.163756249479
0.162165952923
0.160391309954
0.158455817784
0.156455874403
0.154356853516
0.151981146607
0.149046211317
0.145205941285
0.140346826294
0.139319627766
0.145089055931
0.14509806445
0.145117754512
0.145162971794
0.145216810914
0.14527864476
0.145353507557
0.145450604146
0.145560078192
0.145711306227
0.145877292968
0.146048857365
0.146225481598
0.146420763189
0.146642542134
0.146870648418
0.147101106147
0.147343336499
0.14759695162
0.147862673802
0.148142245575
0.148430357186
0.148740460926
0.149098875248
0.149520291006
0.150005589919
0.150535192337
0.151069492737
0.151597896453
0.152130618927
0.152695495494
0.153296699247
0.153934011346
0.154606430901
0.155320044063
0.156071306439
0.156849823646
0.157658082711
0.158498888449
0.1593753127
0.160289861062
0.161245253305
0.162249326007
0.163302556294
0.164381648312
0.165472236206
0.166589891131
0.167758357371
0.168999176383
0.170233222439
0.170620499319
0.17092497649
0.171208436485
0.17144061154
0.171601866608
0.171680146988
0.171667202623
0.171556557827
0.171341219323
0.17101452509
0.170572190223
0.170012791234
0.16933621379
0.168540615486
0.167620162532
0.166565388817
0.165364820169
0.164005549586
0.162473065276
0.160751969834
0.158828371211
0.156672676203
0.154171225097
0.151254817933
0.147791125816
0.143362177651
0.137109561681
0.127211388989
0.108498001404
0.0627792139766
0.144719226064
0.144728626189
0.144751405069
0.14480199035
0.144856555016
0.144917319042
0.144990788456
0.145088922552
0.145193803001
0.145344557075
0.145514681129
0.145690543845
0.145871903277
0.146071823381
0.146299693482
0.146537297988
0.146779391615
0.147031066414
0.147292409603
0.147567298574
0.147858942208
0.148155343529
0.148466603942
0.148824389444
0.149241321118
0.149717586608
0.150242307297
0.150777528449
0.151321470815
0.151870941694
0.152439764551
0.153042149953
0.153687050208
0.154370956744
0.155090285099
0.155854809197
0.156655531241
0.157487230551
0.158353052778
0.159255082019
0.1601979553
0.161191776565
0.162248706015
0.163353270047
0.164469183316
0.16559491431
0.166772674855
0.168059477339
0.1695301511
0.169922693406
0.17021527807
0.170523695601
0.170777589855
0.170949349331
0.17102974671
0.171009667175
0.17088178449
0.170641227689
0.170283838327
0.16980573828
0.169203958421
0.168476495683
0.167621276994
0.166634395902
0.165508627616
0.164233056444
0.162793400408
0.161171956731
0.159346841983
0.157290757059
0.154968128272
0.152334436844
0.149211915731
0.14533546798
0.14044706264
0.133952531476
0.124609926418
0.109994786382
0.0852167764566
0.0438324974468
0.144310489098
0.144320242253
0.144346085776
0.144402350214
0.144457599702
0.144520875432
0.144595000007
0.144692529293
0.144796321776
0.144947771819
0.145122161309
0.145302277695
0.145488256451
0.145692372933
0.145924651576
0.146169481625
0.146425379393
0.146688580897
0.146958281929
0.147241888161
0.147545659903
0.147855104541
0.148169341338
0.148525631808
0.148940738757
0.149410043988
0.149928200392
0.15045974561
0.151007862751
0.151577823881
0.152165121829
0.152772660328
0.153412214438
0.154102547504
0.154837849022
0.155615361185
0.156435093105
0.157290909869
0.158183283705
0.159114737902
0.160092756015
0.161137298222
0.16225275325
0.163403510465
0.164562497309
0.165750321934
0.167029340303
0.168380370429
0.169300047772
0.169586197545
0.169823642835
0.170073894223
0.170260033029
0.170345628367
0.170321866455
0.170181913321
0.1699203103
0.169533912948
0.16902052541
0.168377996286
0.167604083839
0.16669619796
0.165650602885
0.164461230617
0.16311854981
0.161608840432
0.159913694405
0.158009150127
0.155863950912
0.153436427701
0.150668756114
0.147475359705
0.143728177264
0.139057914344
0.132966577279
0.12488371738
0.113696200476
0.0975123668295
0.0730129288422
0.0391511814445
0.143854576983
0.143866578831
0.143893941072
0.143950338367
0.144009890764
0.144081401012
0.144160616806
0.144261033042
0.144371142681
0.144519459416
0.144697538594
0.144882028155
0.145072753506
0.14528091645
0.145516535208
0.145764877064
0.146030945678
0.146309350765
0.146590546735
0.146884543253
0.147199022098
0.147525149295
0.147850714156
0.148202804736
0.148615910699
0.149080889829
0.149593046363
0.150121235785
0.150667155421
0.151248117735
0.151856031564
0.152481352109
0.15312467409
0.153811784894
0.154552572207
0.155346252202
0.156186862979
0.157068136968
0.157987816293
0.15895186774
0.15997815978
0.161085258039
0.162257971729
0.163461230811
0.164694591638
0.166004979499
0.167365152656
0.168398906989
0.168878699362
0.169137855616
0.169358098937
0.169540522858
0.169633842749
0.169611378222
0.169463984516
0.169186755789
0.168776618599
0.168232179233
0.167552659722
0.166736916625
0.165782920377
0.164687294494
0.163444615918
0.162046484857
0.160480531245
0.158729470929
0.156770070493
0.154571621493
0.152093416778
0.149280578557
0.146057117762
0.14231417834
0.137892270396
0.132527371594
0.125649718026
0.116526306507
0.104306463452
0.0876394904584
0.0640978429985
0.034282401263
0.143356626794
0.143372360198
0.143400172753
0.143450612905
0.143517576413
0.143597970949
0.143685368676
0.143793237215
0.143915973294
0.144060712981
0.144239714717
0.144427980584
0.144623714039
0.144836335341
0.145075794239
0.145328220748
0.145598924627
0.145890829895
0.146186760508
0.146494430569
0.146819845424
0.147162299586
0.147509525125
0.147868449102
0.148272475144
0.14873187457
0.14923808289
0.149763559291
0.150305559083
0.150888505657
0.151508188312
0.152156816728
0.152816463677
0.15350395922
0.154243994601
0.1550447135