/*--------------------------------*- C++ -*----------------------------------*\
| =========                 |                                                 |
| \\      /  F ield         | OpenFOAM: The Open Source CFD Toolbox           |
|  \\    /   O peration     | Version:  v1806                                 |
|   \\  /    A nd           | Web:      www.OpenFOAM.com                      |
|    \\/     M anipulation  |                                                 |
\*---------------------------------------------------------------------------*/
FoamFile
{
    version     2.0;
    format      ascii;
    class       volScalarField;
    location    "880";
    object      p;
}
// * * * * * * * * * * * * * * * * * * * * * * * * * * * * * * * * * * * * * //

dimensions      [0 2 -2 0 0 0 0];


internalField   nonuniform List<scalar> 
6400
(
0.143079846388
0.143083206353
0.143092849979
0.143111843356
0.143140384013
0.14317852888
0.143226242819
0.143284620196
0.143354951453
0.143439322478
0.143544095452
0.143672708921
0.143822779133
0.143994234672
0.144189031756
0.144409893914
0.144658832788
0.144936083135
0.145239513644
0.145563782536
0.145903752956
0.146261427574
0.146644703064
0.147061635054
0.147517091152
0.14801099484
0.148540015114
0.149101525021
0.149694964339
0.150320788176
0.150979217688
0.151668153851
0.152381680786
0.153113725422
0.153861289733
0.154621890415
0.155395981159
0.156188497513
0.156997762099
0.157815461444
0.158641893418
0.15948733344
0.160356592303
0.161241609533
0.162131069298
0.163016544748
0.163891494706
0.164750585085
0.165588878637
0.166401936628
0.167185836387
0.16793464069
0.168639011398
0.169288229917
0.16987920458
0.170414233525
0.170888668092
0.171293796659
0.171627527976
0.171896200826
0.172106255517
0.172262072176
0.172369371207
0.172444560026
0.172509109785
0.172578714148
0.172651842262
0.172713043056
0.172754306525
0.172778562601
0.172790642908
0.172794165116
0.172791284995
0.172783980131
0.172773366091
0.172761172055
0.172748723136
0.172739447519
0.172732875382
0.172729994178
0.14307502654
0.143078618499
0.14308745092
0.143105990381
0.143135983739
0.143175541214
0.143223712027
0.143280350722
0.143348649104
0.143432740451
0.143537156261
0.143664803408
0.143815156949
0.143987506143
0.144182419509
0.144401932763
0.144650072819
0.144927920406
0.145232519229
0.145557168643
0.145895282933
0.146251020656
0.146633819938
0.147050894567
0.147506861817
0.148001494248
0.148530902824
0.149093047203
0.149687421626
0.150313996162
0.150972641481
0.15166208575
0.152376566392
0.153108817085
0.153856545292
0.154617509509
0.155391751611
0.156184932587
0.156995495726
0.157814397395
0.158641008443
0.15948745105
0.160359652037
0.161246972311
0.162137799256
0.163024771092
0.16390134342
0.164762338169
0.165602485828
0.16641637368
0.167200031671
0.167949992171
0.168658075524
0.169309294942
0.169901821163
0.170438966628
0.17091222321
0.171314936625
0.171647934787
0.171915450636
0.172122921157
0.172277465189
0.172384813388
0.172461076085
0.172526940514
0.172596960494
0.172669873312
0.172728545765
0.172766836324
0.172788746862
0.172798869192
0.172800666588
0.172795963132
0.172786472503
0.172774182057
0.172760706785
0.17274789956
0.17273782234
0.172730848879
0.172728376248
0.143061351137
0.143067221373
0.143075360959
0.143092478513
0.143121477915
0.14316517493
0.143216875077
0.143271923802
0.143337164748
0.143419533213
0.143523096377
0.143650216892
0.143800875287
0.143974031637
0.14416896563
0.144385217308
0.144630959936
0.144912896286
0.14522020317
0.145543390134
0.145877586289
0.14622871416
0.146610797371
0.147030079501
0.147487066968
0.147981797125
0.148512426438
0.149076347871
0.149672319944
0.150300230943
0.150959809284
0.151650427403
0.152366897954
0.153099169754
0.153846129949
0.154608678218
0.155383668315
0.15617689718
0.156989146593
0.157811536111
0.158643983307
0.159495089537
0.160368392057
0.161256577899
0.162149467656
0.163039096329
0.163918973727
0.164783496526
0.165627304441
0.16644532269
0.167233094335
0.167985260581
0.168693078093
0.169347565223
0.169946175515
0.170485054576
0.170956662086
0.171357543204
0.17168868989
0.171953881654
0.172158960326
0.172310373221
0.172416933075
0.172496620854
0.172568204604
0.17264001453
0.172707128243
0.172759010429
0.172792478568
0.172810296672
0.172816656079
0.172814367549
0.172805361798
0.172791934042
0.172776448695
0.17276055444
0.172746083344
0.172734547106
0.172726962909
0.172724002361
0.143041446495
0.143047541837
0.143054738779
0.143070610761
0.143096289054
0.143139959459
0.143204157993
0.143259499741
0.143320134332
0.143399506783
0.143501628006
0.143628451811
0.143779805423
0.143953081797
0.144147836289
0.14436766728
0.144616903718
0.14489599637
0.14519522792
0.145508131539
0.145838818657
0.146193441176
0.146578038322
0.146998208784
0.147456418686
0.147952652531
0.148485160622
0.149051297773
0.149649573036
0.150279400987
0.150941023573
0.151633331051
0.15235155497
0.153086556824
0.153831942652
0.154592765717
0.155371175231
0.156165988986
0.156978376227
0.157805453954
0.158645915247
0.159503708942
0.160380685835
0.161271605065
0.162167919646
0.163061755825
0.16394642131
0.164816052003
0.165665192404
0.166488671868
0.167281426152
0.16803744161
0.168748993083
0.169408768707
0.170011791953
0.170552118766
0.171023328586
0.17142266859
0.171751343577
0.172013302423
0.172214686052
0.172363743155
0.172473356701
0.172560622213
0.172636479432
0.172704221361
0.172764545576
0.172808775371
0.172834306706
0.172844795512
0.172844241967
0.172835027581
0.172819573728
0.172800336254
0.17277938598
0.172759680468
0.172742739736
0.172727944078
0.172717386472
0.172712933637
0.143010076222
0.143011776967
0.143020593104
0.143037016103
0.143065549796
0.143107064106
0.143166567264
0.143226525632
0.143290734383
0.14337062683
0.143471609192
0.143598351886
0.143750991015
0.143929464065
0.14413116509
0.144351399452
0.144593627503
0.144860060347
0.145149040184
0.145459316094
0.145791342535
0.146147626313
0.146534031365
0.146956015139
0.147415936842
0.147914088752
0.148448711724
0.149017640251
0.149618916868
0.150251788699
0.150915648088
0.151611322643
0.1523332943
0.153067128336
0.153812072772
0.1545726225
0.155350728173
0.156148727344
0.15696581876
0.157799342015
0.158648074338
0.159513577683
0.160396239074
0.161291872768
0.162193257266
0.163092863509
0.16398387486
0.164860214898
0.165716296573
0.166546775408
0.1673461737
0.168108228363
0.168825748231
0.169491684179
0.170099507007
0.170642171539
0.171113713312
0.171511890923
0.171838216327
0.172097193226
0.172296227551
0.172446079435
0.172561390138
0.172654820097
0.17272969478
0.172793204781
0.172846049759
0.172880134726
0.172894080289
0.17289288705
0.172881362215
0.172862397499
0.172838365309
0.172810715253
0.172782501505
0.17275696152
0.17273404101
0.172712267411
0.172697776698
0.172692200607
0.142953643538
0.142954278434
0.142968230276
0.142985585684
0.143017410097
0.143061499536
0.143117717703
0.143178609276
0.143248004522
0.143330409749
0.14343014577
0.143557506667
0.14371883559
0.143905933904
0.144106885759
0.144320935253
0.144553439798
0.144810991914
0.145095082678
0.14540321768
0.14573375871
0.146090579681
0.1464790245
0.146903424376
0.147365679515
0.147865709841
0.148403130251
0.148975124852
0.14958046151
0.150217217644
0.150885365035
0.151583313105
0.152305736248
0.153043068697
0.153786276183
0.154544542057
0.155324976099
0.156128046296
0.156951514221
0.157792760538
0.158650426786
0.159524697016
0.16041490349
0.161317305763
0.162225599028
0.163132664335
0.164031667102
0.164916378593
0.165781078282
0.166620253253
0.167428169482
0.168198437911
0.168923960514
0.169597317725
0.170210866925
0.170757031191
0.17123023266
0.171628682092
0.171954376752
0.172212781229
0.172412831694
0.172566839387
0.172688697973
0.17278296035
0.172854951095
0.172912662045
0.172956576361
0.172977480107
0.172975046015
0.172956563374
0.172929730345
0.172898048654
0.172862204566
0.172823226938
0.17278503959
0.172749944316
0.172716614681
0.172685947109
0.172666780387
0.172658398302
0.142867970094
0.142874903055
0.142897074677
0.142922277459
0.142950705588
0.142995803861
0.143054068779
0.1431178066
0.143191229335
0.143276859737
0.143380980303
0.143512558518
0.143681716582
0.143868091606
0.144064532186
0.144270777917
0.144497139492
0.144752087932
0.145033936646
0.145337349661
0.145665435718
0.146023114947
0.146413430103
0.146839890468
0.147304886247
0.147808845517
0.148347955556
0.148923531742
0.1495337839
0.150177412989
0.150849813868
0.151548549835
0.152272156869
0.153006758541
0.153750436577
0.154510592898
0.155295256253
0.156104542315
0.156935553259
0.157785545262
0.158652973343
0.159537160301
0.160436672237
0.161347879903
0.162265041746
0.163181397631
0.164090166526
0.164985037189
0.165860185911
0.166709966266
0.167528468321
0.16830914678
0.169044686002
0.169727099996
0.170348032145
0.170899795825
0.171377287924
0.171779230767
0.172108138756
0.172370191133
0.172575198829
0.17273523593
0.172859999889
0.172952822287
0.173025284031
0.173075777318
0.173102827566
0.17310279492
0.173077734882
0.173037028514
0.172990779708
0.172942605192
0.172891023411
0.172837907385
0.172785843144
0.172735404026
0.172686912823
0.17264636597
0.172621774263
0.172610173069
0.142766166319
0.142779159413
0.142804371038
0.142839717357
0.142871274916
0.142918751722
0.142975855462
0.143043094992
0.143121628993
0.143205835397
0.143318937115
0.143463633625
0.143631418618
0.143814449284
0.144004429773
0.144203897562
0.144429327999
0.14468458081
0.144961811933
0.145260549062
0.145586733822
0.1459447912
0.146336778451
0.146766295672
0.147234938137
0.147742267285
0.14828553262
0.148861986091
0.149479330955
0.150132189898
0.150807139495
0.151504329307
0.152226910578
0.152960788838
0.153705165867
0.154470823294
0.155261964714
0.156078437832
0.156917844695
0.157777532797
0.158655699736
0.159551057352
0.160461604031
0.161383638829
0.162311714666
0.163239338227
0.164159820586
0.16506683031
0.165954475974
0.166817003291
0.167648349768
0.168441760726
0.169189574883
0.169883316838
0.170514350857
0.171075308343
0.171561708505
0.171972526825
0.172309904509
0.17257964933
0.172791461624
0.172955826353
0.173080914789
0.173173909257
0.173242072228
0.173286969834
0.173290571101
0.173260519372
0.173205950368
0.173137043595
0.173065524175
0.172995261473
0.172924913796
0.172854833079
0.172783211388
0.17270993498
0.172642646634
0.172590937895
0.172560880163
0.172547404306
0.142653349193
0.142669848491
0.142695620213
0.142727013443
0.142766335121
0.142822727194
0.142880968765
0.14295060098
0.143037919596
0.143128278422
0.143240132075
0.143394035986
0.143565008646
0.143742830888
0.143927209624
0.144126618962
0.144351659305
0.144604098772
0.144877046013
0.145173179827
0.145498093453
0.145855788026
0.146248024996
0.146679748252
0.147155779973
0.147665565718
0.148213460919
0.148797578398
0.149417302289
0.150072448775
0.150753474036
0.151456330488
0.15217127149
0.152902600799
0.153652641394
0.154425850451
0.155224816026
0.15604953346
0.156898239939
0.157768582809
0.158658580241
0.159566464423
0.160489780942
0.161424670027
0.162365790999
0.16330682153
0.164241182095
0.16516256602
0.166065033518
0.166942726995
0.167789436727
0.168598194437
0.169361051317
0.170069337334
0.170714665001
0.17129040891
0.171792598893
0.172219281614
0.17257014921
0.17285005017
0.173069956607
0.173239205714
0.173364817566
0.173452215965
0.173505775652
0.173536693153
0.173527145029
0.17345888165
0.173365982854
0.17325968091
0.173152493322
0.173053946599
0.172964036052
0.17287547112
0.172776969524
0.172670411348
0.172579424028
0.172515820851
0.172480137915
0.172465760263
0.142527591585
0.142546233724
0.142576193287
0.142606779286
0.142649379286
0.142706532131
0.142767745176
0.142838164061
0.142926746814
0.143034692191
0.143152391207
0.143307163443
0.143479547262
0.143654336751
0.143833579309
0.144036000571
0.144264358456
0.144512202347
0.144780014918
0.145073951834
0.145398744715
0.145757279669
0.146150235861
0.146581297584
0.147063837544
0.147582251039
0.148128521919
0.148719409932
0.149344876399
0.150004818872
0.150689876855
0.151392234018
0.152107563556
0.152838266931
0.153593713014
0.154375434601
0.155183460292
0.156017570062
0.156876573309
0.1577585625
0.158661551879
0.159583413819
0.160521284574
0.16147108872
0.162427485656
0.163384256295
0.164334928361
0.16527324177
0.166193206968
0.167088848668
0.167953822859
0.16878103262
0.169562482764
0.170289790745
0.170955417636
0.171553759572
0.172080620608
0.172530670068
0.1728987262
0.173191523547
0.173426025907
0.173605646379
0.173730851574
0.173802768102
0.173827406052
0.173817837885
0.173782819501
0.17370514102
0.173565218172
0.173404387173
0.17324527624
0.173113898282
0.173008373532
0.172905455309
0.172771265673
0.172610594617
0.172486314941
0.172410272523
0.172368323322
0.172353468431
0.142383411374
0.142401174285
0.142433928976
0.142469927487
0.142521414027
0.142573894993
0.1426364868
0.142710041544
0.142791835968
0.142909859608
0.143042644701
0.143198833035
0.14337214534
0.143548339791
0.143727460159
0.143931154467
0.144161345901
0.144406590123
0.14467070091
0.144961640532
0.145285681279
0.145646560375
0.146044989228
0.14647660517
0.146955583346
0.147486411624
0.148041470466
0.148633094052
0.149261126816
0.149918146984
0.150610371895
0.151316949208
0.152032360218
0.152766682898
0.153529012458
0.154319690892
0.155137634342
0.15598226962
0.15685267463
0.157747362341
0.158664541702
0.159601892989
0.160556169028
0.161523020412
0.162497045667
0.163472110671
0.164441858491
0.165400064712
0.166340652948
0.167257504872
0.168144186961
0.16899366163
0.169798304579
0.170550648475
0.171244535097
0.171875151684
0.172436586303
0.172917894704
0.17330762828
0.173620827394
0.173888983709
0.174090721
0.174213483617
0.174255860724
0.174228561528
0.174149968365
0.174045902252
0.17395050883
0.173806622324
0.17357599824
0.173331292672
0.173162421115
0.173057618171
0.172962851789
0.172781063563
0.172513017666
0.17233728438
0.172254126974
0.172208992702
0.172199753167
0.142216535305
0.142230822223
0.142257630174
0.142303047036
0.142365639316
0.142419482616
0.14248412316
0.14256495556
0.142645992988
0.142761531478
0.142906128857
0.143066772254
0.143240596154
0.143419954462
0.143606899165
0.14381405144
0.144043629021
0.144286557126
0.144548735437
0.144836980733
0.145157652839
0.145517124932
0.145925318748
0.146368836415
0.146843747157
0.147375344686
0.147939513114
0.148530775423
0.149168113714
0.149831286772
0.150518274824
0.151223430991
0.151943080219
0.152686664331
0.153458066016
0.154258385532
0.155087039509
0.155943308248
0.156826335579
0.157734887628
0.158667479536
0.159621856075
0.160594458629
0.161580580812
0.162574728051
0.163570894765
0.164562873819
0.165544441875
0.166509355367
0.167451309866
0.168363861964
0.169240345215
0.170074106898
0.170859238708
0.171590932774
0.172263653365
0.172869844819
0.173396200275
0.173816180081
0.174161392489
0.174515189037
0.174763644882
0.174884363005
0.17487975302
0.174772486833
0.174589043539
0.17435960833
0.174194044874
0.174078147725
0.17377146115
0.173379559398
0.173170767053
0.173114540149
0.173105723268
0.172860713177
0.172321433091
0.172072218997
0.172024209176
0.171988992096
0.172009543835
0.142026540395
0.142037931467
0.142055829636
0.14210644992
0.142170783445
0.14223335349
0.142302886663
0.142391947052
0.142481573012
0.142597055062
0.142747284177
0.142911420695
0.143085614587
0.143264492936
0.143461859443
0.143679935226
0.143909919686
0.144151269016
0.144412942246
0.144700230716
0.145017527818
0.145371141761
0.145781082557
0.146245551544
0.146728024264
0.147250274378
0.147825872995
0.148424381894
0.149055818501
0.149723819118
0.150414485255
0.151120232117
0.151844609138
0.152597526786
0.153379578382
0.154190873946
0.155031247826
0.155900208454
0.156797160596
0.157721000158
0.158670376476
0.159643288981
0.160636130523
0.161643841258
0.162660769011
0.163681117739
0.164698929351
0.16570794082
0.166701598706
0.167673326708
0.168616800871
0.169526213263
0.170396651078
0.171224058999
0.172003235051
0.172724336116
0.173389556675
0.174004865985
0.174469625992
0.174875745321
0.175482870335
0.175780743887
0.175850807396
0.175731680212
0.175466126313
0.175099117308
0.174636769042
0.174298749433
0.17415886024
0.173995270712
0.173236201662
0.17299459133
0.173097702876
0.173449348806
0.173107197896
0.171923220923
0.17159541374
0.171726343577
0.17169054534
0.171806867724
0.141814566355
0.141827670815
0.14185090662
0.141890785699
0.141949852812
0.142018375043
0.142094145738
0.142188141804
0.142291286119
0.142410712558
0.142565753672
0.142733281032
0.142909461647
0.143088733702
0.14329013922
0.143518660571
0.143753900081
0.143997895313
0.144261120968
0.144549287149
0.144865606823
0.145214193617
0.145620197278
0.146097602181
0.146596995917
0.147118282145
0.147697885598
0.148306172923
0.148935629862
0.149602030256
0.150290670061
0.150999330437
0.151734949566
0.1524992615
0.153292902236
0.1541163432
0.154969767208
0.155852668497
0.156764685111
0.157705240499
0.158673089002
0.159666253959
0.160681236987
0.161712842237
0.162755323477
0.163803210165
0.164850949998
0.165892194447
0.166919847656
0.167926915497
0.168907373941
0.169857039761
0.170773694363
0.171654640393
0.172489182735
0.173258368894
0.174031706023
0.174854949231
0.175198766976
0.175119819417
0.175310252856
0.175532418985
0.175600864698
0.175497841476
0.17526846495
0.174956593383
0.17460481217
0.174287908558
0.174032465207
0.173653629244
0.173270357582
0.173206451006
0.173549994907
0.174452395473
0.174570403541
0.170359737729
0.1702727831
0.171362531678
0.171266572673
0.171674458956
0.141575703297
0.141590605738
0.141624453555
0.141654651183
0.141707379162
0.141777919005
0.141858879226
0.141959271853
0.142078534386
0.142201658845
0.142360566724
0.142532002676
0.142711927312
0.142895112022
0.143099906434
0.143334150913
0.143575235041
0.143824624892
0.144091581378
0.144382001473
0.144699561116
0.145047091846
0.145445318255
0.145922272087
0.14644719979
0.146978437201
0.147548470314
0.148171956367
0.14881221479
0.149467010182
0.150151903964
0.150867283577
0.151613609813
0.152390334555
0.153197062149
0.154034060664
0.154901714982
0.15580003341
0.15672866434
0.157687285476
0.158675232765
0.1596906176
0.160729854573
0.16178767848
0.162858475916
0.163937417252
0.165019648991
0.166098723604
0.167166581487
0.168215411527
0.169239833984
0.17023855502
0.171213060543
0.172159668023
0.173052364134
0.173839670727
0.17452997261
0.174737539229
0.174959709382
0.175132776763
0.175248447809
0.175399304192
0.175449690032
0.175348748951
0.175121796698
0.17480597439
0.174438580751
0.174064839128
0.173712072433
0.173351452537
0.173024362848
0.17284814993
0.172868414276
0.172902637817
0.171768465558
0.170860742006
0.17191636928
0.172788863018
0.170173676228
0.171765560952
0.141305276949
0.141319893898
0.141353398562
0.141386157477
0.141436986305
0.141509730371
0.14159397921
0.141696101723
0.141830939875
0.141966707143
0.142129455866
0.142305846173
0.142491490166
0.142681650357
0.142891775984
0.143129795466
0.143375839382
0.143631548748
0.143903628301
0.144197487379
0.144517219103
0.144866261416
0.145259607289
0.145730489027
0.146273160328
0.146824694207
0.147389770737
0.148008510775
0.148660304313
0.149322484283
0.150005719525
0.150725107852
0.151481112439
0.152270637228
0.153091476497
0.153943203978
0.154826459955
0.155741527244
0.156688396596
0.157666819872
0.158676527936
0.159716113826
0.160781953971
0.161868469505
0.162970207575
0.164083641593
0.165205431773
0.166328904834
0.167443930827
0.168541492753
0.169617601222
0.170675363186
0.171721699894
0.172757614465
0.173732131289
0.174087831481
0.174336507313
0.17459041198
0.174806540308
0.174965622969
0.175054935936
0.175119607243
0.175100719086
0.174957105242
0.17469838637
0.174353119409
0.173952902604
0.17353031771
0.17310815443
0.172690814025
0.17228410963
0.171941873524
0.171687502637
0.171416195685
0.170917687019
0.170684868653
0.171072936535
0.171033152204
0.172047853107
0.173690857849
0.141005127458
0.141019156714
0.141054530929
0.141088610992
0.141140808466
0.141214966473
0.141302159027
0.141402796037
0.141542176337
0.141695937814
0.141867746227
0.14205101594
0.142244512194
0.142445968174
0.142662731965
0.14290484083
0.143155947964
0.143418710888
0.143696871178
0.143995295722
0.144318065986
0.144669152086
0.145060217048
0.145523153682
0.146069337588
0.146650681107
0.147228439517
0.14783660754
0.148485661743
0.149152797984
0.149842094195
0.150570163239
0.151336873724
0.152139410863
0.152975236667
0.153843157224
0.154743327247
0.155676590062
0.156643239513
0.157643299722
0.158676657663
0.159742391985
0.160837280513
0.161955323452
0.163090765015
0.164241844058
0.165408024367
0.166582730615
0.167752768936
0.168907143356
0.170042544492
0.171167343834
0.172297697762
0.173362659301
0.173598419764
0.17385401651
0.1741406342
0.174380365015
0.174561345946
0.174679358816
0.174727631816
0.17471334451
0.174613775803
0.17440552472
0.17409090108
0.173689200374
0.173224857731
0.172722616351
0.172202533024
0.17167884651
0.171142967215
0.170614808621
0.170132413899
0.169684704181
0.169246349369
0.168970900695
0.169259851509
0.170192853077
0.172269070513
0.174616737441
0.140678155183
0.140690618867
0.140721855343
0.140760687717
0.140819169942
0.140895251054
0.14098721408
0.141088402977
0.141228673252
0.141394180298
0.141574608847
0.141764567984
0.141964759564
0.142181253217
0.14240875916
0.142655636628
0.142912831241
0.143184409906
0.143470166573
0.143774462819
0.14410137611
0.144455046946
0.144845575038
0.145302162032
0.145845004828
0.146447150929
0.147049561546
0.147657501511
0.148298544644
0.14896517459
0.149662261357
0.15040017194
0.151178617298
0.151994664409
0.152846542499
0.153732427875
0.154651431978
0.155604387925
0.15659258472
0.157616072103
0.158675049615
0.159769285503
0.160895972671
0.162048553438
0.163219836079
0.164410546389
0.165627017537
0.166862677535
0.168095772272
0.169315547852
0.170516544208
0.171720536602
0.172847532363
0.173128081825
0.173386973329
0.173634132651
0.173881241043
0.174077786529
0.174206238344
0.174260455291
0.174234382216
0.174125926987
0.173925366981
0.173621404754
0.173214956209
0.172718796538
0.172150842943
0.171529407048
0.170869678344
0.170181328776
0.169467632691
0.168711751841
0.167930065783
0.167158738224
0.166422514161
0.165873671958
0.165880765323
0.166713256332
0.168920150037
0.170936988628
0.140328336195
0.140339488786
0.140364956024
0.140409102428
0.1404730973
0.14055097238
0.140647043949
0.140753281926
0.14089206588
0.141064663069
0.141251538697
0.141447030089
0.141651168112
0.141878197094
0.142122497389
0.142377431899
0.142642046396
0.142923878153
0.143220307772
0.143532877922
0.143865915953
0.144222993454
0.144614632161
0.145067007122
0.145601497021
0.146206577456
0.14683530603
0.147460479946
0.148102317775
0.148769188839
0.149469149897
0.150215315658
0.151005644757
0.151834775496
0.152704087602
0.153609740378
0.154548789939
0.155523440537
0.156535259436
0.15758463125
0.158671567098
0.159796253021
0.160956848323
0.162147647963
0.163362045232
0.164601034574
0.165870284022
0.167162138404
0.168463816871
0.169769393482
0.171046167171
0.172258447794
0.172578661538
0.172861530107
0.173120453806
0.173346269958
0.173535204229
0.173663425014
0.173713524453
0.173677504623
0.173550333158
0.173328677048
0.173007542595
0.172581906362
0.172052749091
0.171428153974
0.170719911369
0.169939871678
0.169097077229
0.168195163719
0.167234505974
0.16616085885
0.164963286686
0.163681617178
0.162327517469
0.160957327488
0.159692631006
0.158458568355
0.156783777403
0.153560845589
0.139957532021
0.139968567624
0.139992612915
0.140041554416
0.140106346379
0.140183602755
0.140278982986
0.1403919766
0.140529138963
0.140706448078
0.140898944239
0.141099906596
0.141309008282
0.141541067627
0.141800244177
0.14206737426
0.14234188612
0.14263400272
0.142942490277
0.143266657496
0.143609337102
0.143971581347
0.144365851692
0.144817040477
0.14534424482
0.145945540251
0.146589001999
0.147234931022
0.147882176786
0.14855192326
0.149260883412
0.150014189508
0.150814563469
0.151658492069
0.152546284766
0.153472801879
0.154433944371
0.155432292649
0.156469739486
0.157547194205
0.158664870008
0.159823241468
0.161022463406
0.162259638445
0.163525462535
0.164811762814
0.166124575644
0.167470154652
0.168855374553
0.170293533605
0.171613354894
0.171963158472
0.172260067801
0.17254337304
0.172779200157
0.172957048377
0.173071322123
0.173108598737
0.173055971554
0.172906080294
0.172654694119
0.17229888276
0.171835723329
0.171262820644
0.170580660395
0.169793286535
0.168906456111
0.167924952607
0.166850076956
0.16567712587
0.164398262693
0.162931091804
0.161197111143
0.159190448478
0.156853028723
0.154061974383
0.150630246913
0.146267177577
0.140873746486
0.139306692118
0.13956256048
0.139574150148
0.139599404518
0.139653350217
0.139718290035
0.139794028952
0.139886027838
0.140003605063
0.140137308498
0.140317598698
0.140515819709
0.140722493789
0.140937786273
0.141176152933
0.141445550807
0.141725308036
0.142011834458
0.142315125438
0.142635048498
0.142972157311
0.143328156403
0.143698504376
0.144096730948
0.144549333302
0.145071866579
0.14566728965
0.14631596318
0.146977867016
0.147641961352
0.148319530036
0.149036880652
0.149799808732
0.150608609837
0.151462842224
0.152366997584
0.153317514224
0.154304645134
0.155329548917
0.156394652109
0.157502219871
0.158653790783
0.159850653829
0.161096648098
0.162388087298
0.16370323126
0.165030226958
0.166384626031
0.167793474224
0.169305126582
0.170947652114
0.171319799223
0.171610217228
0.171905382997
0.172158206115
0.172341207934
0.172445618478
0.172465000819
0.172390408752
0.172213380702
0.171928419635
0.171532232757
0.171022490228
0.170397043919
0.169653940197
0.168792121927
0.167811454021
0.166711342901
0.165488421236
0.164133726052
0.162629118964
0.16094205937
0.159015551349
0.156671193287
0.153761633404
0.150132738715
0.145390080243
0.138724626424
0.128350017195
0.109105211401
0.0627985864665
0.139135575649
0.139147648615
0.139176302392
0.139235949238
0.139301917425
0.139376766175
0.139467606208
0.139586845347
0.139716347039
0.139896993892
0.140100590947
0.140312968358
0.140534573417
0.140779493181
0.141057209851
0.141349077935
0.141650114186
0.141965995735
0.142297014653
0.14264684385
0.143018761064
0.143401191593
0.143804378765
0.144260083623
0.144781556394
0.145371050468
0.146018222859
0.146685992567
0.147370709901
0.148070176401
0.148796420043
0.149564940644
0.150385227429
0.151255109836
0.152171276418
0.153141116112
0.154156325659
0.155211206321
0.156308091522
0.157448808606
0.158636915694
0.159879554504
0.161183830779
0.162532891242
0.163893733416
0.165262544317
0.16667182418
0.168169154565
0.169636362195
0.170748076738
0.171017657364
0.171252479496
0.171498372073
0.171688209929
0.171789978948
0.171795249329
0.171697976471
0.171491846379
0.171171560262
0.170733496455
0.170175233792
0.169494725126
0.16868965576
0.16775713993
0.166693622788
0.165494381441
0.164152143713
0.162654831697
0.16098250417
0.159103275661
0.156967094465
0.154504267117
0.151497715111
0.147635409199
0.142634360386
0.135907066572
0.126236078123
0.111217966978
0.08596976915
0.0440391664234
0.138665463488
0.138677931565
0.138709918956
0.138775734232
0.138842611874
0.138920267739
0.139012024105
0.139131293173
0.139260170643
0.139442285323
0.139651344213
0.139869307379
0.140097019016
0.140347982482
0.140632315894
0.140933982731
0.141251904253
0.141582854029
0.141925862827
0.142288249172
0.142676763231
0.143076663811
0.143487099904
0.143945443813
0.144469244191
0.145055587219
0.145700013488
0.146368704448
0.147063534422
0.14778912938
0.148539503047
0.149318466456
0.150139113832
0.151020306475
0.151957270508
0.152946815227
0.153987904648
0.155074240213
0.156205426274
0.157383708458
0.158615200501
0.159915257568
0.161284652303
0.162690137265
0.1641048417
0.165542855838
0.167064444404
0.168638756551
0.16991320638
0.170354604173
0.170606422773
0.170822857379
0.171005100889
0.171106444644
0.171103645982
0.170988409526
0.170755709362
0.170401531657
0.169922911906
0.169317743186
0.168584222881
0.167720168797
0.166722399237
0.165586220323
0.164304895671
0.16286877042
0.161263715544
0.159468714189
0.157452405084
0.155168119006
0.152546407687
0.149482997778
0.145825432067
0.141171752313
0.135001208724
0.126742120097
0.115292899749
0.0987707687069
0.0738540493217
0.0394981776934
0.138143418331
0.138158271902
0.138191872576
0.138257998717
0.138329608256
0.138416153289
0.138513540541
0.138636538005
0.138772472261
0.138951913126
0.139165789236
0.139389368401
0.139623219848
0.139879988508
0.140169807559
0.140477418549
0.140808752028
0.141158779577
0.141517148316
0.141894220321
0.142298486396
0.142720237037
0.143146856472
0.143605884324
0.144132024661
0.144718537557
0.145361501425
0.146031501871
0.146729818706
0.147472678406
0.148250609109
0.149053519451
0.14988397497
0.150768125407
0.151716688166
0.152728778857
0.153798039476
0.154917668344
0.156084909825
0.157304533223
0.158591522003
0.159960501828
0.161396193458
0.1628648764
0.164360700905
0.165915419132
0.167513601495
0.168850076928
0.169460769899
0.169803471973
0.170090133623
0.170288516102
0.170392082302
0.170388602514
0.170264251104
0.170012138419
0.169629457474
0.169114711879
0.168466901956
0.167685064346
0.166767678731
0.165712020277
0.164513527904
0.163165160916
0.161656623681
0.159973238981
0.158094214651
0.155990068611
0.153618926683
0.150921198666
0.14781176837
0.14416817831
0.13981451019
0.134464062182
0.127524903101
0.11825841796
0.105824801522
0.0888709681039
0.0649550815091
0.0346966615941
0.137575391171
0.137594236762
0.137628242403
0.137688010712
0.137767612911
0.137863773025
0.137969984841
0.138101316991
0.138250980601
0.138427203759
0.138642824609
0.138871252762
0.139111404425
0.139374315495
0.139670095104
0.13998427157
0.140323406201
0.140690705475
0.14106797803
0.141463730573
0.141884347225
0.142327871639
0.142782185056
0.143253891043
0.143776394789
0.144362128885
0.145003943361
0.145676372891
0.146376642192
0.147127924157
0.147925088441
0.148758758992
0.14961289173
0.150504367569
0.151459054485
0.152485378904