/*--------------------------------*- C++ -*----------------------------------*\
| =========                 |                                                 |
| \\      /  F ield         | OpenFOAM: The Open Source CFD Toolbox           |
|  \\    /   O peration     | Version:  v1806                                 |
|   \\  /    A nd           | Web:      www.OpenFOAM.com                      |
|    \\/     M anipulation  |                                                 |
\*---------------------------------------------------------------------------*/
FoamFile
{
    version     2.0;
    format      ascii;
    class       surfaceScalarField;
    location    "97";
    object      phia;
}
// * * * * * * * * * * * * * * * * * * * * * * * * * * * * * * * * * * * * * //

dimensions      [0 3 -1 0 0 0 0];
oriented        oriented;


internalField   nonuniform List<scalar> 
12640
(
2.99619134764e-07
-2.9009453256e-07
5.84498382402e-07
-2.80776231882e-07
8.49682986624e-07
-2.62773077108e-07
1.07878017787e-06
-2.28332962398e-07
1.23908307456e-06
-1.5845058496e-07
1.31521656679e-06
-7.2391094149e-08
1.34387121225e-06
-2.52699431448e-08
1.43305793079e-06
-8.61540737929e-08
1.59442627962e-06
-1.59208221991e-07
1.74257015732e-06
-1.46631044384e-07
1.87736592777e-06
-1.34357853806e-07
2.04100207308e-06
-1.63559102181e-07
2.1883462746e-06
-1.47719576712e-07
2.2968298382e-06
-1.08886049772e-07
2.38404902083e-06
-8.73828106353e-08
2.49798979637e-06
-1.12931563164e-07
2.61951109161e-06
-1.20513113894e-07
2.70664829824e-06
-8.57965105719e-08
2.74740616379e-06
-4.06676051684e-08
2.75797107633e-06
-1.1541884772e-08
2.80321544781e-06
-4.69831320915e-08
2.90535197149e-06
-1.03849946766e-07
3.033339451e-06
-1.30016960857e-07
3.17074622572e-06
-1.39159110622e-07
3.29959474626e-06
-1.30541924346e-07
3.4129697686e-06
-1.14704162762e-07
3.52588724235e-06
-1.14278682627e-07
3.63000543594e-06
-1.0509288839e-07
3.7148686118e-06
-8.60057448835e-08
3.78363073983e-06
-6.95597051722e-08
3.8573209825e-06
-7.48312718432e-08
3.929326051e-06
-7.28245327691e-08
3.97826322509e-06
-4.92891742885e-08
4.03139355097e-06
-5.34471450982e-08
4.0789494469e-06
-4.87343550713e-08
4.11761565177e-06
-3.91124410527e-08
4.17262183726e-06
-5.60365299418e-08
4.22324399128e-06
-5.28812738198e-08
4.2620666616e-06
-4.19282169834e-08
4.3321823821e-06
-7.33792354373e-08
4.53439616221e-06
-2.0560148478e-07
4.77102787936e-06
-2.3929020234e-07
4.88789179316e-06
-1.18878505553e-07
4.93879969071e-06
-5.31585012389e-08
4.96190775847e-06
-2.52474055462e-08
4.95357088007e-06
6.18899816202e-09
4.91682930167e-06
3.44579856529e-08
4.84600065498e-06
6.83204744458e-08
4.75656291179e-06
8.68481048043e-08
4.71586665494e-06
3.85198931875e-08
4.79117827922e-06
-7.85204897486e-08
4.87528365051e-06
-8.61985263018e-08
4.71642111354e-06
1.57837181435e-07
4.4315167183e-06
2.83471089028e-07
4.08265091633e-06
3.47819894517e-07
3.59182993548e-06
4.89885887993e-07
3.17749761291e-06
4.11488096522e-07
2.93711261382e-06
2.36306869918e-07
2.70120185268e-06
2.31255096979e-07
2.45820764604e-06
2.37128084457e-07
2.31921497335e-06
1.31587174264e-07
2.172908477e-06
1.40651120336e-07
1.87112064017e-06
2.97406024575e-07
1.62472590457e-06
2.44612458666e-07
1.45347302125e-06
1.69953605334e-07
1.33153458366e-06
1.21291285701e-07
1.21775781856e-06
1.13050488624e-07
1.1012837237e-06
1.15852739192e-07
9.77919098575e-07
1.22867522326e-07
8.45221658286e-07
1.32588677086e-07
7.11635081939e-07
1.33562169346e-07
5.86992470609e-07
1.24563501164e-07
4.75464340359e-07
1.11757832726e-07
3.66985124493e-07
1.0894308596e-07
2.78324372864e-07
8.94029747431e-08
2.04870433119e-07
7.38362696537e-08
1.54120170544e-07
5.06596663412e-08
1.0378969941e-07
5.03347849061e-08
6.22066076454e-08
4.50173487021e-08
6.21285132693e-08
1.47916715055e-07
-4.39609441642e-07
3.38975189298e-07
-4.70053676974e-07
5.27371599341e-07
-4.51390331896e-07
7.3520706059e-07
-4.3586409047e-07
1.03569684972e-06
-4.56891261837e-07
1.29218849661e-06
-3.26310297109e-07
1.44097256815e-06
-1.70225397699e-07
1.56377911017e-06
-2.06559088856e-07
1.69039114749e-06
-2.83902484053e-07
1.83850151907e-06
-2.94191390999e-07
1.98588262304e-06
-2.81348246143e-07
2.09707682111e-06
-2.75210759505e-07
2.19776373724e-06
-2.48127964698e-07
2.30174696886e-06
-2.12393773089e-07
2.40520685602e-06
-1.89130040535e-07
2.52544753025e-06
-2.32056042035e-07
2.61568619822e-06
-2.08965512546e-07
2.60122720535e-06
-7.15156752667e-08
2.57322080416e-06
-1.3296090615e-08
2.60305285466e-06
-4.32221853191e-08
2.69543883501e-06
-1.41404048163e-07
2.86971889844e-06
-2.80977674359e-07
3.05403156047e-06
-3.16135935405e-07
3.17478924423e-06
-2.62227528915e-07
3.28767136879e-06
-2.44828758779e-07
3.4292116753e-06
-2.58154715927e-07
3.54714118581e-06
-2.33141940315e-07
3.63603608315e-06
-1.9554820115e-07
3.71367949857e-06
-1.64325881834e-07
3.78171484763e-06
-1.38983052621e-07
3.83228000813e-06
-1.25933316282e-07
3.87247273238e-06
-1.13459943706e-07
3.89115001194e-06
-6.82149898119e-08
3.91720034624e-06
-8.03189732579e-08
3.99062802727e-06
-1.21884062184e-07
4.02491298138e-06
-7.51492885891e-08
4.05869601076e-06
-9.16969239469e-08
4.15653968533e-06
-1.53442202485e-07
4.28672161558e-06
-1.74826668639e-07
4.37614651633e-06
-1.66338739924e-07
4.18507491718e-06
-1.65615566098e-08
3.87990283358e-06
6.39328423243e-08
3.80260018689e-06
-4.30484354747e-08
3.85070483907e-06
-1.03643117575e-07
3.94326087741e-06
-1.1985645263e-07
4.07088455898e-06
-1.24239305133e-07
4.20182744536e-06
-9.8807722715e-08
4.33100370245e-06
-6.38484290624e-08
4.4332255287e-06
-1.78407154259e-08
4.40361072527e-06
6.53647072281e-08
4.1755410523e-06
1.47960961674e-07
3.93828831047e-06
1.49008932191e-07
4.12358029668e-06
-2.95575077175e-08
4.30996521781e-06
9.43902719202e-08
4.20956417036e-06
4.45712663915e-07
4.17911006069e-06
5.16476458457e-07
4.12110795674e-06
4.65252608193e-07
3.90312468382e-06
4.49153904629e-07
3.65466982753e-06
4.73928554118e-07
3.35209212844e-06
5.32579532923e-07
2.80496527555e-06
6.73574132926e-07
2.30472066491e-06
6.35838980567e-07
1.93796844486e-06
6.60630270534e-07
1.65855974961e-06
5.22455485446e-07
1.44462863274e-06
3.83612886819e-07
1.26831399706e-06
2.96853188859e-07
1.15271166069e-06
2.28223730373e-07
1.05958708079e-06
2.08380515242e-07
9.5038040309e-07
2.31763800911e-07
8.20560571892e-07
2.61969890409e-07
6.81578248111e-07
2.72268603094e-07
5.50154609012e-07
2.5577442941e-07
4.43132620035e-07
2.18810183386e-07
3.62557794725e-07
1.89707512935e-07
2.89726176752e-07
1.62579565308e-07
2.26738567709e-07
1.37134798276e-07
1.67650935374e-07
1.10521919166e-07
1.18834740861e-07
1.0004614663e-07
5.88790444378e-08
1.04307442634e-07
1.25086150457e-07
2.03042712787e-07
-6.34653431384e-07
2.81337884447e-07
-5.47945689116e-07
5.46652986781e-07
-7.16200715881e-07
8.82746383492e-07
-7.69987755882e-07
1.17629601684e-06
-7.47524951797e-07
1.30185645362e-06
-4.49841970005e-07
1.35751000798e-06
-2.25186287649e-07
1.49220291819e-06
-3.40519164689e-07
1.65461688803e-06
-4.46069304434e-07
1.81744050458e-06
-4.57277270796e-07
1.96877640977e-06
-4.32949214681e-07
2.09028871723e-06
-3.95850609372e-07
2.19252248407e-06
-3.48507285282e-07
2.29497151588e-06
-3.12509312173e-07
2.34540776022e-06
-2.37408879904e-07
2.19507707109e-06
-8.023539699e-08
1.96146617088e-06
2.43385453177e-08
1.89766971901e-06
-8.57064738724e-09
1.99813303279e-06
-1.15420099144e-07
2.29845294303e-06
-3.45822227489e-07
2.66598490938e-06
-5.11457548084e-07
2.87617817708e-06
-4.93202956908e-07
3.00009126417e-06
-4.42190601277e-07
3.16838291964e-06
-4.32211986976e-07
3.32791890011e-06
-4.06145342602e-07
3.43743803336e-06
-3.68948592101e-07
3.52618341849e-06
-3.23316914145e-07
3.60873841095e-06
-2.79058030561e-07
3.67598064322e-06
-2.32723036207e-07
3.7389239724e-06
-2.02564506745e-07
3.77138694816e-06
-1.58683338003e-07
3.78744106348e-06
-1.30105911001e-07
3.82672131667e-06
-1.07146041537e-07
3.77413895139e-06
-2.7637264407e-08
3.7478686764e-06
-9.73065937493e-08
3.87303548549e-06
-2.02118798346e-07
3.91838600791e-06
-1.39589927279e-07
3.96540337704e-06
-2.03523048384e-07
4.188498971e-06
-4.01238638054e-07
4.4392101879e-06
-4.19440417439e-07
4.66474763265e-06
-2.44279070216e-07
4.83489660035e-06
-1.08274292232e-07
4.90700209258e-06
-1.17799793845e-07
4.94647059451e-06
-1.45655461412e-07
4.97448022882e-06
-1.50828966903e-07
4.98567311612e-06
-1.38231337641e-07
4.98894224596e-06
-1.05210149634e-07
4.98218219449e-06
-5.99517788245e-08
4.96362242806e-06
-2.11736994589e-09
4.95275710274e-06
7.41054807781e-08
4.95083944216e-06
1.47629549097e-07
4.90416219217e-06
1.93246736662e-07
4.64456590407e-06
2.27396618421e-07
4.34980212793e-06
3.86397094123e-07
4.28723635245e-06
5.04578990616e-07
4.25938345444e-06
5.40186982402e-07
4.10265285404e-06
6.17297085866e-07
3.85470766434e-06
6.92170939249e-07
3.56978696623e-06
7.5339733997e-07
3.26395477419e-06
8.33240125447e-07
2.99332334172e-06
9.38431492477e-07
2.59875386792e-06
1.02612552903e-06
2.05771400877e-06
1.19995946197e-06
1.58163766105e-06
9.97131501415e-07
1.33449537398e-06
6.29930536561e-07
1.22770996044e-06
4.03305375447e-07
1.11931856886e-06
3.36153811615e-07
9.97024453077e-07
3.3022954801e-07
8.69572504069e-07
3.58617397851e-07
7.34308279691e-07
3.96543160044e-07
6.06536128955e-07
3.99319617656e-07
5.04477694646e-07
3.57387679883e-07
4.1953399104e-07
3.03598126788e-07
3.44151975607e-07
2.65390111688e-07
2.6756221626e-07
2.39839727547e-07
1.95763576395e-07
2.09810658709e-07
1.37836585472e-07
1.68445307363e-07
9.94714492442e-08
1.38573378752e-07
4.43769293741e-08
1.65206463011e-07
1.68326233435e-07
1.3489553229e-07
-7.72788974625e-07
1.61441004123e-07
-5.73543035686e-07
4.98520472626e-07
-1.05184459932e-06
7.52161469954e-07
-1.02080101933e-06
6.96392151209e-07
-6.900598777e-07
5.37081405083e-07
-2.90472034014e-07
7.65418776316e-07
-4.5414669971e-07
1.21638637151e-06
-7.92970313806e-07
1.54487955341e-06
-7.75558705513e-07
1.75913401733e-06
-6.71996950274e-07
1.94111055143e-06
-6.14012064672e-07
2.08354086129e-06
-5.35819493376e-07
2.14674279781e-06
-4.08545154432e-07
2.03497489479e-06
-1.97724015885e-07
1.81422609447e-06
-1.52719949046e-08
1.70973873282e-06
2.36067702751e-08
1.77737848766e-06
-4.47526473217e-08
2.00866496139e-06
-2.41965772302e-07
2.38363278513e-06
-4.92839756116e-07
2.66100236361e-06
-6.25381590969e-07
2.7796819659e-06
-6.32094635643e-07
2.91286310067e-06
-6.28468666491e-07
3.07198329186e-06
-6.03124032044e-07
3.19993254307e-06
-5.618821177e-07
3.30732679915e-06
-5.14761316229e-07
3.39815750894e-06
-4.61145975817e-07
3.48835796852e-06
-4.14374038198e-07
3.56307466353e-06
-3.55001478001e-07
3.63445932781e-06
-3.04776397597e-07
3.67303666692e-06
-2.41496018276e-07
3.71634507615e-06
-2.02249906083e-07
3.71229677862e-06
-1.25420278689e-07
3.64172732124e-06
-3.69521621225e-08
3.72386747361e-06
-1.11015912973e-07
3.77139970304e-06
-1.46498347929e-07
3.8103300746e-06
-2.43904818862e-07
4.09164931183e-06
-4.24446721097e-07
4.38188493746e-06
-4.97218527148e-07
4.49718836884e-06
-5.19095681542e-07
4.55114922573e-06
-4.75876603866e-07
4.65757495645e-06
-3.53212188092e-07
4.79049080486e-06
-2.43985209252e-07
4.87923198669e-06
-2.09120372607e-07
4.93320871047e-06
-2.0234395451e-07
4.96854862253e-06
-1.88724830325e-07
4.98909961519e-06
-1.61525775111e-07
5.00029557292e-06
-1.19072302435e-07
5.00148283708e-06
-6.3973188964e-08
4.99230581423e-06
4.49667416461e-09
4.97621636373e-06
8.77323410437e-08
4.94337163329e-06
1.78316856904e-07
4.86379349936e-06
2.70683782514e-07
4.71264291585e-06
3.76151021692e-07
4.57815167594e-06
5.17751520909e-07
4.4479834714e-06
6.3120336892e-07
4.26416072504e-06
7.19956862596e-07
4.03581290413e-06
8.41424536031e-07
3.75578210447e-06
9.67868539118e-07
3.43091447689e-06
1.07394717149e-06
3.09075133959e-06
1.16862500072e-06
2.75877280362e-06
1.26657202019e-06
2.39539004953e-06
1.38598907195e-06
2.04451574021e-06
1.54653060774e-06
1.64343125453e-06
1.39692499701e-06
1.35903384956e-06
9.14072131293e-07
1.17106573117e-06
5.91040022886e-07
1.03374503522e-06
4.7323692946e-07
9.14548619002e-07
4.48868315868e-07
8.00755431528e-07
4.71422894228e-07
6.82694558244e-07
5.1336725509e-07
5.61027856533e-07
5.20046163487e-07
4.50132277632e-07
4.67784630643e-07
3.54724859235e-07
3.99111917909e-07
2.70839209346e-07
3.49758558148e-07
1.96668025734e-07
3.14673221893e-07
1.27014803503e-07
2.80137801669e-07
7.60216608909e-08
2.20896458365e-07
4.91950810939e-08
1.67338088061e-07
2.34559915422e-08
1.88911608161e-07
1.9503063398e-07
9.54904674401e-09
-7.77675090767e-07
1.51148974302e-07
-7.14937641388e-07
4.32159533028e-07
-1.32947750099e-06
5.62561097402e-07
-1.14687947355e-06
4.59701336423e-07
-5.86445238001e-07
5.66834288768e-07
-3.98622239679e-07
9.30770463418e-07
-8.20166612149e-07
1.23998301811e-06
-1.10325437757e-06
1.46056904711e-06
-9.97143421707e-07
1.6708601358e-06
-8.81419395252e-07
1.8635944062e-06
-8.03811054787e-07
1.89796958648e-06
-5.67120257786e-07
1.74347210355e-06
-2.51264678006e-07
1.6236157076e-06
-7.69257315102e-08
1.67041981571e-06
-6.31097076389e-08
1.84171915936e-06
-1.49550103459e-07
2.13455770088e-06
-3.39992202555e-07
2.44766905239e-06
-5.57747581218e-07
2.59629714914e-06
-6.4365700373e-07
2.6482984065e-06
-6.79317659557e-07
2.77470538749e-06
-7.60366297723e-07
2.92763348318e-06
-7.83200728779e-07
3.061745744e-06
-7.3880559654e-07
3.17157942161e-06
-6.72821515079e-07
3.26758387997e-06
-6.11932851708e-07
3.36525655622e-06
-5.59428868545e-07
3.43114133425e-06
-4.81533798129e-07
3.50679018913e-06
-4.31231463715e-07
3.54793893709e-06
-3.46112297749e-07
3.59445714951e-06
-2.87940288504e-07
3.58357582845e-06
-1.91074677551e-07
3.60394028005e-06
-1.46141484701e-07
3.73324193884e-06
-1.67203100152e-07
3.72969271849e-06
-1.09669600481e-07
3.8365813645e-06
-2.56615672801e-07
4.09276903269e-06
-5.03721701678e-07
4.28177854231e-06
-6.16797877703e-07
4.41602134843e-06
-6.34167282743e-07
4.49978128509e-06
-6.05352898044e-07
4.5665928124e-06
-5.45141085123e-07
4.66173993292e-06
-4.51034215363e-07
4.7734145323e-06
-3.58371641692e-07
4.86336486835e-06
-3.01852376321e-07
4.92640233746e-06
-2.68005811895e-07
4.97045886608e-06
-2.35392680874e-07
5.00082229383e-06
-1.94411813696e-07
5.02063851841e-06
-1.41507061632e-07
5.02975766849e-06
-7.56737618801e-08
5.02610709477e-06
5.56731789799e-09
5.00676975389e-06
1.04772909425e-07
4.96228333967e-06
2.20665032118e-07
4.87910303529e-06
3.51747001614e-07
4.75535330132e-06
4.97509554893e-07
4.61805410181e-06
6.52255101274e-07
4.45390439935e-06
7.92107185178e-07
4.23665345376e-06
9.33819479429e-07
3.96581272885e-06
1.10899493007e-06
3.63543886308e-06
1.29500090943e-06
3.25891323958e-06
1.44677656655e-06
2.88121082658e-06
1.54260237041e-06
2.5337951432e-06
1.6094187579e-06
2.23581553889e-06
1.67919049092e-06
2.03981469058e-06
1.74061010247e-06
1.65370219129e-06
1.78148555981e-06
1.40340012604e-06
1.16335651368e-06
1.19299875366e-06
8.01358273179e-07
1.0009316166e-06
6.64846550504e-07
8.42492727192e-07
6.06314483898e-07
7.12629177655e-07
6.00030144616e-07
5.89646229985e-07
6.35121555384e-07
4.64832639894e-07
6.43884347302e-07
3.60571710693e-07
5.7175722042e-07
2.755636341e-07
4.84262900776e-07
1.95570239169e-07
4.30156276968e-07
1.22888662669e-07
3.88225411691e-07
6.73400150167e-08
3.37001946421e-07
4.15201798867e-08
2.46957791043e-07
1.93815486413e-08
1.89026051791e-07
5.57026570745e-09
2.08010105957e-07
1.99156836412e-07
6.02661761349e-10
-7.81499236963e-07
2.13308903427e-07
-9.2616483974e-07
3.47225283664e-07
-1.46013594762e-06
3.91419432853e-07
-1.18919183695e-06
3.50727259544e-07
-5.45671846614e-07
6.7230593705e-07
-7.2158887405e-07
1.06638780412e-06
-1.215653274e-06
1.23068051405e-06
-1.26914269274e-06
1.39203693417e-06
-1.15715570433e-06
1.52464416903e-06
-1.01164115403e-06
1.52835381061e-06
-8.04491968716e-07
1.35662515432e-06
-3.92991437208e-07
1.31264119202e-06
-2.06692992075e-07
1.42332902707e-06
-1.88608746531e-07
1.63165420601e-06
-2.73523654764e-07
1.97059647047e-06
-4.91393531932e-07
2.31734785952e-06
-6.89480309049e-07
2.44264045182e-06
-6.84909805511e-07
2.4734524895e-06
-6.762446266e-07
2.62595838417e-06
-8.33644162723e-07
2.79087314325e-06
-9.27004684798e-07
2.91173790832e-06
-9.05478434427e-07
3.02274265367e-06
-8.50963687262e-07
3.13839885006e-06
-7.89602020572e-07
3.24036813851e-06
-7.14424171313e-07
3.26875946194e-06
-5.88712866057e-07
3.34453832208e-06
-5.57668568851e-07
3.38400670373e-06
-4.7095218841e-07
3.43135766669e-06
-3.93729772285e-07
3.39737226494e-06
-2.53870010295e-07
3.38945567399e-06
-1.83143863072e-07
3.43529291204e-06
-1.92988984625e-07
3.46053757891e-06
-1.94586808153e-07
3.70746361145e-06
-3.5978812791e-07
4.00085866806e-06
-5.53947231699e-07
4.19798460718e-06
-7.04285441201e-07
4.322647056e-06
-7.44248749545e-07
4.41375549743e-06
-7.27623790065e-07
4.49145278476e-06
-6.85214858522e-07
4.56977178359e-06
-6.25827122473e-07
4.66225342302e-06
-5.46179475438e-07
4.76307827062e-06
-4.62058596297e-07
4.85221342386e-06
-3.93786655045e-07
4.9219236602e-06
-3.40403540849e-07
4.97485051923e-06
-2.90868162343e-07
5.01467050618e-06
-2.36738261988e-07
5.04351498888e-06
-1.72825747786e-07
5.06014325026e-06
-9.4783641677e-08
5.06102383499e-06
2.28444651996e-09
5.04131836861e-06
1.2218602456e-07
4.99417754316e-06
2.65690329049e-07
4.91321712172e-06
4.30588420367e-07
4.79776834597e-06
6.10574418129e-07
4.65139043701e-06
7.960155226e-07
4.45909661216e-06
9.81670700033e-07
4.20350925853e-06
1.18687875657e-06
3.88432074977e-06
1.42591092953e-06
3.50992270402e-06
1.66706752088e-06
3.09997745413e-06
1.85398941576e-06
2.70511924397e-06
1.93330211612e-06
2.36827729795e-06
1.94140678211e-06
2.07913842769e-06
1.96457271445e-06
1.91036763529e-06
1.90539071277e-06
1.63934397537e-06
2.04896413234e-06
1.32567599187e-06
1.47719290342e-06
1.13276237761e-06
9.94230986993e-07
9.38165632853e-07
8.59067264831e-07
7.60455896668e-07
7.83153417744e-07
6.13028616862e-07
7.46221511284e-07
4.78329386272e-07
7.68450998425e-07
3.61060704281e-07
7.60329725908e-07
2.77175819744e-07
6.55381688462e-07
1.93805993136e-07
5.67763543906e-07
1.14483099389e-07
5.10012540144e-07
5.15061572766e-08
4.52011531388e-07
2.12186394907e-08
3.67817913948e-07
3.29057475784e-09
2.6599175344e-07
-8.70072843962e-09
2.03382983106e-07
-8.53468318353e-09
2.04892834696e-07
1.93782120189e-07
7.5000413799e-08
-8.54425095186e-07
3.53134723068e-07
-1.20333585357e-06
4.63379044978e-07
-1.56564833438e-06
3.51743351576e-07
-1.07554628826e-06
4.41174278213e-07
-6.35983064338e-07
8.57141608599e-07
-1.13933739292e-06
1.08022368064e-06
-1.44069091825e-06
1.20113427377e-06
-1.38864542222e-06
1.27014702635e-06
-1.22533084296e-06
1.39192636754e-06
-1.12937932126e-06
1.29292518691e-06
-7.0270245547e-07
1.20349957986e-06
-3.02612913132e-07
1.29837184981e-06
-3.02263837086e-07
1.45264305677e-06
-3.4530074379e-07
1.75311820058e-06
-5.77045431343e-07
2.11684055488e-06
-8.57434393832e-07
2.23832297638e-06
-8.1257814948e-07
2.25107589682e-06
-6.99340651976e-07
2.43014186017e-06
-8.5721646592e-07
2.63019832695e-06
-1.03543749943e-06
2.76808365479e-06
-1.06624250847e-06
2.88455312258e-06
-1.02311261814e-06
2.99502821253e-06
-9.62685261685e-07
3.068933743e-06
-8.63970962671e-07
3.10249538025e-06
-7.48464979586e-07
3.1533751323e-06
-6.4007540749e-07
3.16741171772e-06
-5.72179132236e-07
3.22229391996e-06
-5.26356763425e-07
3.22175092199e-06
-3.93192120809e-07
3.18894156948e-06
-2.21204140366e-07
3.2537120521e-06
-2.48921935097e-07
3.3525588072e-06
-2.93385695205e-07
3.52293364754e-06
-3.67896238989e-07
3.77546483993e-06
-6.16090667336e-07
4.06784629992e-06
-8.49768025987e-07
4.22276213941e-06
-8.6200289488e-07
4.31668022874e-06
-8.40504189928e-07
4.39851325756e-06
-8.11568273234e-07
4.48155115254e-06
-7.70419501658e-07
4.56733681114e-06
-7.14004340101e-07
4.65984325994e-06
-6.4133122224e-07
4.75613298409e-06
-5.61117313773e-07
4.84502960095e-06
-4.8544787225e-07
4.92000893289e-06
-4.1804625306e-07
4.98117892324e-06
-3.54603884741e-07
5.03055078228e-06
-2.88604760675e-07
5.06860471791e-06
-2.13331402548e-07
5.09294124887e-06
-1.21515861688e-07
5.09927952348e-06
-6.38939120732e-09
5.08273026168e-06
1.36522978259e-07
5.037962417e-06
3.08332475818e-07
4.96014540712e-06
5.06218893347e-07
4.84527193347e-06
7.23248727597e-07
4.68624760553e-06
9.52722834277e-07
4.4677269983e-06
1.19818626994e-06
4.17749268213e-06
1.4755780572e-06
3.81750333922e-06
1.78466225504e-06
3.40154994285e-06
2.08116171701e-06
2.96889738392e-06
2.28255429946e-06
2.60023743196e-06
2.29634582562e-06
2.37439255274e-06
2.16164181892e-06
2.26076237696e-06
2.0724221923e-06
2.04076586648e-06
2.12029988165e-06
1.78483621265e-06
2.30363950595e-06
1.28839563158e-06
1.97306277622e-06
1.05470871647e-06
1.22814168176e-06
8.71736963339e-07
1.04190725417e-06
6.85212352182e-07
9.69090170926e-07
5.12334995878e-07
9.17983355461e-07
3.69204822969e-07
9.10501744013e-07
2.75351339679e-07
8.53475870478e-07
1.94034846009e-07
7.36430650955e-07
1.04360003612e-07
6.57593208078e-07
2.97048119697e-08
5.85160577448e-07
-1.66082772505e-08
4.990425963e-07
-2.85825659223e-08
3.80790141065e-07
-4.21853305235e-08
2.7982503218e-07
-4.64446295676e-08
2.06448051311e-07
-2.36813710159e-08
1.87926897078e-07
1.68221341963e-07
1.45698455691e-07
-1.00325405926e-06
4.18105825048e-07
-1.47406846699e-06
4.33997168214e-07
-1.58130576813e-06
2.45463284729e-07
-8.8683616052e-07
5.22431944717e-07
-9.13898208537e-07
8.95895922794e-07
-1.51453503449e-06
1.0278788107e-06
-1.5721388941e-06
1.15783717556e-06
-1.51810321345e-06
1.11278311978e-06
-1.17593394139e-06
1.11771751171e-06
-1.13247306718e-06
1.01003053545e-06
-5.93539529029e-07
1.15758381925e-06
-4.50645347616e-07
1.28890589874e-06
-4.35507003645e-07
1.52483794874e-06
-5.83618054113e-07
1.8696034591e-06
-9.24543452848e-07
2.03056986319e-06
-1.0203135115e-06
2.03674736155e-06
-8.19925855665e-07
2.20987729691e-06
-8.74037127332e-07
2.44066799286e-06
-1.08988763781e-06
2.59329631624e-06
-1.18960165747e-06
2.70800658122e-06
-1.18220488409e-06
2.8174729838e-06
-1.13396805367e-06
2.94250067413e-06
-1.0881598641e-06
3.05386475286e-06
-9.7567350643e-07
3.05663489539e-06
-7.51756614843e-07
3.11999338196e-06
-7.03559143466e-07
3.1357899257e-06
-5.88401602389e-07
3.07716075857e-06
-4.68052708131e-07
3.07016810687e-06
-3.86818739372e-07
3.27040764426e-06
-4.22213022076e-07
3.37248543554e-06
-3.52166387297e-07
3.36855760685e-06
-2.92130805824e-07
3.61783202802e-06
-6.20493865511e-07
3.94328973193e-06
-9.45083879571e-07
4.09364022635e-06
-1.00302339545e-06
4.2015693797e-06
-9.72285595272e-07
4.29269073815e-06
-9.33707886722e-07
4.3795334149e-06
-9.00412347868e-07
4.46892896165e-06
-8.61928764171e-07
4.56078844028e-06
-8.08212754959e-07
4.65492085822e-06
-7.38071246103e-07
4.74974764675e-06
-6.5868445368e-07
4.83980082848e-06
-5.78241390552e-07
4.92005699637e-06
-5.0094627535e-07
4.98929158967e-06
-4.26388673408e-07
5.04811280023e-06
-3.4987520802e-07
5.09555580813e-06
-2.6315371502e-07
5.12826952077e-06
-1.56531263973e-07
5.14185374466e-06
-2.21926578891e-08
5.13179865311e-06
1.44419378305e-07
5.0931578428e-06
3.44826555963e-07
5.02012063359e-06
5.77128305534e-07
4.90439861719e-06
8.36727045877e-07
4.73367300407e-06
1.12151132792e-06
4.49325315634e-06
1.43721759267e-06
4.1761725488e-06
1.79202629211e-06
3.787325832e-06
2.17274713488e-06
3.33846472828e-06
2.52685819081e-06
2.86723004184e-06
2.74805713662e-06
2.52224245242e-06
2.63353672216e-06
2.39482028882e-06
2.28217194067e-06
2.32008419132e-06
2.14156026955e-06
2.20066748919e-06
2.23558226005e-06
2.09463259817e-06
2.40693463995e-06
1.6070074792e-06
2.45965063766e-06
1.04997940169e-06
1.78573753471e-06
7.77164125614e-07
1.31544688003e-06
5.676390289e-07
1.17909395447e-06
3.90569130731e-07
1.09467509564e-06
2.7047274707e-07
1.02996607193e-06
1.90422854153e-07
9.32797379137e-07
9.70538565333e-08
8.29462783453e-07
5.54571551304e-09
7.49156529847e-07
-6.05966300651e-08
6.51817621917e-07
-9.01655916203e-08
5.29225128686e-07
-1.00982083016e-07
3.91904589269e-07
-1.03983638026e-07
2.83479364323e-07
-9.20640849613e-08
1.97335189638e-07
-5.36873896987e-08
1.45700790043e-07
1.17816317498e-07
2.04739226136e-07
-1.20628473136e-06
4.19160302553e-07
-1.68723827618e-06
3.36541470045e-07
-1.4960472466e-06
3.32202245739e-07
-8.82699009692e-07
6.87105827482e-07
-1.26959409192e-06
8.38986322996e-07
-1.666770728e-06
9.58321647117e-07
-1.68984925449e-06
1.06480697732e-06
-1.6219427345e-06
1.0590992868e-06
-1.1687865958e-06
1.06497554632e-06
-1.13560538806e-06
1.05746286422e-06
-5.86232663009e-07
1.17759840681e-06
-5.7173128174e-07
1.33523667892e-06
-5.95678368665e-07
1.62864851407e-06
-8.80333478462e-07
1.93856882963e-06
-1.2358248694e-06
1.98057560453e-06
-1.06304655541e-06
2.03031090097e-06
-8.70973226552e-07
2.21911594586e-06
-1.06479005283e-06
2.40994345953e-06
-1.28251577326e-06
2.54451722742e-06
-1.32574198416e-06
2.647864111e-06
-1.28733670489e-06
2.72032333708e-06
-1.20692281532e-06
2.77728523549e-06
-1.14515918978e-06
2.83166073743e-06
-1.03007198487e-06
2.87698257565e-06
-7.96789554063e-07
2.91237681045e-06
-7.39308522658e-07
3.00552005332e-06
-6.82006275771e-07
3.11401369701e-06
-5.77116930302e-07
3.21066138201e-06
-4.8382690269e-07
3.26039169832e-06
-4.72905606561e-07
3.36511610762e-06
-4.59241009807e-07
3.64598618293e-06
-5.76448702866e-07
3.84875822293e-06
-8.27134335053e-07
3.97914861112e-06
-1.07874089023e-06
4.07930498624e-06
-1.1055688372e-06
4.17345582475e-06
-1.06843236637e-06
4.26679856125e-06
-1.02894938038e-06
4.35841821931e-06
-9.94015544103e-07
4.45166983226e-06
-9.57342677895e-07
4.54794820145e-06
-9.06887102448e-07
4.64570945357e-06
-8.38397107683e-07
4.7423771842e-06
-7.58009515452e-07
4.83512186554e-06
-6.73617502769e-07
4.92119171509e-06
-5.89589651631e-07
4.99876348905e-06
-5.06429447216e-07
5.0667897407e-06
-4.20295215221e-07
5.12358020717e-06
-3.22243867322e-07
5.16572491252e-06
-2.00900305967e-07
5.18896707047e-06
-4.76217062858e-08
5.18908594536e-06
1.42163790445e-07
5.16096209266e-06
3.70771667278e-07
5.09678384365e-06
6.39078941421e-07
4.98427681804e-06
9.47240885393e-07
4.80719901627e-06
1.29718632133e-06
4.55154968174e-06
1.69253093339e-06
4.21357370355e-06
2.13026707334e-06
3.79772944114e-06
2.58632052773e-06
3.30764316126e-06
3.01110422457e-06
2.77627638163e-06
3.2690454655e-06
2.49279172143e-06
2.90785958973e-06
2.47619146709e-06
2.29223596763e-06
2.42507220538e-06
2.1878568412e-06
2.32294848238e-06
2.33444970322e-06
2.20382029544e-06
2.52268777907e-06
1.98449342744e-06
2.6781644398e-06
1.30242246464e-06
2.46809883127e-06
6.74718936387e-07
1.94492029322e-06
4.42973359767e-07
1.41169550006e-06
2.85071299872e-07
1.25351115108e-06
1.79629177521e-07
1.13518534844e-06
9.01941879885e-08
1.02168569046e-06
-1.28381054628e-08
9.32019676653e-07
-1.02175163445e-07
8.38639991967e-07
-1.59971247838e-07
7.09988520188e-07
-1.84935362438e-07
5.54713658234e-07
-1.97027953062e-07
4.04611374124e-07
-1.87316530385e-07
2.73994300016e-07
-1.53610998324e-07
1.61790354851e-07
-8.36936049371e-08
8.18278484036e-08
3.21859319929e-08
2.55758981786e-07
-1.46592216505e-06
4.42752703709e-07
-1.87524486343e-06
3.0868079114e-07
-1.36206887081e-06
4.20916204906e-07
-9.94540638039e-07
7.40320669003e-07
-1.5886000623e-06
7.56990571787e-07
-1.68105736567e-06
8.6836573645e-07
-1.80069998071e-06
8.6421026624e-07
-1.61496260248e-06
9.49445127331e-07
-1.25296254463e-06
8.96981602369e-07
-1.08286863268e-06
1.01976347152e-06
-7.09326891869e-07
1.17446023938e-06
-7.28869374695e-07
1.35773965648e-06
-7.81060818521e-07
1.64139109877e-06
-1.16576928867e-06
1.79157860928e-06
-1.38770861534e-06
1.77749271162e-06
-1.04966493558e-06
1.94934498334e-06
-1.04420610709e-06
2.16784352192e-06
-1.28516784166e-06
2.33950106984e-06
-1.45600662366e-06
2.48400200074e-06
-1.4720860068e-06
2.60157575485e-06
-1.40527594663e-06
2.70587041908e-06
-1.31170018438e-06
2.73434636597e-06
-1.17367297715e-06
2.7394294819e-06
-1.03475842307e-06
2.85866923771e-06
-9.1622797686e-07
2.87366051213e-06
-7.54674605268e-07
2.81913498641e-06
-6.27474743383e-07
2.82596397955e-06
-5.8419421458e-07
2.96497434189e-06
-6.23806574665e-07
3.1770559495e-06
-6.86645090167e-07
3.36496325623e-06
-6.49941875655e-07
3.55179671613e-06
-7.67141806037e-07
3.83203816936e-06
-1.1114918639e-06
3.9620058624e-06
-1.21143405084e-06
4.05150721004e-06
-1.19710569661e-06
4.14506874234e-06
-1.16385160244e-06
4.24137532217e-06
-1.12715828315e-06
4.33627540082e-06
-1.09091901145e-06
4.43131974051e-06
-1.05456339341e-06
4.52990348443e-06
-1.00780361137e-06
4.63120051164e-06
-9.42180178086e-07
4.73183527857e-06
-8.6118409954e-07
4.82916360333e-06
-7.73478448635e-07
4.92163586623e-06
-6.84509833445e-07
5.00785158711e-06
-5.95021876359e-07
5.08576852957e-06
-5.00472308586e-07
5.15240384324e-06
-3.91046474836e-07
5.20472930452e-06
-2.55315788027e-07
5.23994680408e-06
-8.48475910335e-08
5.25455387885e-06
1.2545297247e-07
5.24319430612e-06
3.80025424198e-07
5.19596621805e-06
6.84192807798e-07
5.09567214576e-06
1.04533306123e-06
4.92069106615e-06
1.47078810558e-06
4.65472220084e-06
1.958990626e-06
4.294231019e-06
2.49014169763e-06
3.8437939751e-06
3.03262338641e-06
3.28610375275e-06
3.55839414513e-06
2.66841855703e-06
3.87247740097e-06
2.62427354044e-06
2.94091694504e-06
2.67777398032e-06
2.23476174069e-06
2.58987244764e-06
2.27321315657e-06
2.43606917933e-06
2.48474928386e-06
2.27123662544e-06
2.68472022251e-06
2.14868732584e-06
2.79930780234e-06
1.77570418988e-06
2.84083935445e-06
9.79824472455e-07
2.74184359645e-06
3.30542683826e-07
2.06368540005e-06
1.73449059404e-07
1.41185213346e-06
7.47874592691e-08
1.23364477199e-06
-2.80379455861e-08
1.12441497099e-06
-1.31833044347e-07
1.03519538488e-06
-2.17583009623e-07
9.24009742423e-07
-2.72680157982e-07
7.65239892039e-07
-3.02985700443e-07
5.85087083688e-07
-3.12508437384e-07
4.14193251256e-07
-2.84975815431e-07
2.46830471494e-07
-2.16190161597e-07
9.61003418917e-08
-1.17028701518e-07
-2.12585005427e-08
-8.15887633854e-08
2.5141011816e-07
-1.71458069299e-06
3.82951361149e-07
-2.00361077332e-06
3.19073450681e-07
-1.29688341718e-06
5.46431056343e-07
-1.22104586174e-06