/*--------------------------------*- C++ -*----------------------------------*\
| =========                 |                                                 |
| \\      /  F ield         | OpenFOAM: The Open Source CFD Toolbox           |
|  \\    /   O peration     | Version:  v1806                                 |
|   \\  /    A nd           | Web:      www.OpenFOAM.com                      |
|    \\/     M anipulation  |                                                 |
\*---------------------------------------------------------------------------*/
FoamFile
{
    version     2.0;
    format      ascii;
    class       volVectorField;
    location    "671";
    object      Ua;
}
// * * * * * * * * * * * * * * * * * * * * * * * * * * * * * * * * * * * * * //

dimensions      [0 1 -1 0 0 0 0];


internalField   nonuniform List<vector> 
6400
(
(3.02596949457e-05 3.96709967814e-05 0)
(8.17232346207e-05 2.98071635202e-05 0)
(0.000119214019174 2.4223988124e-05 0)
(0.00015954033594 2.19334451931e-05 0)
(0.000190356532573 1.5508344792e-05 0)
(0.000214137566179 1.0591076035e-05 0)
(0.000229811614394 9.03483239535e-06 0)
(0.000244514176004 1.2464406066e-05 0)
(0.000275535970653 1.67830681856e-05 0)
(0.0003079593942 1.69584314888e-05 0)
(0.000327723460614 1.60931709019e-05 0)
(0.000359338506978 1.73598181501e-05 0)
(0.00039039060412 1.72539665074e-05 0)
(0.000418970073008 1.63441155104e-05 0)
(0.00044475306831 1.6310358504e-05 0)
(0.000472596049687 1.79968467297e-05 0)
(0.000505087055059 1.89704965769e-05 0)
(0.000536445254003 1.85530533913e-05 0)
(0.00056504858816 1.77645235222e-05 0)
(0.00059461721834 1.80628248897e-05 0)
(0.000629565572073 2.10898504374e-05 0)
(0.000669533150602 2.40460369232e-05 0)
(0.000711422422996 2.4966725678e-05 0)
(0.000751973083174 2.49384650828e-05 0)
(0.000791838530676 2.44863564779e-05 0)
(0.000831749069839 2.39813283128e-05 0)
(0.00087259624591 2.41346952993e-05 0)
(0.000913190733109 2.41381887089e-05 0)
(0.000952509594353 2.38090951212e-05 0)
(0.00099070293285 2.35972391985e-05 0)
(0.00102779472676 2.3946837717e-05 0)
(0.0010661738882 2.41223400989e-05 0)
(0.00110592897663 2.40526120988e-05 0)
(0.00114536772383 2.48468182322e-05 0)
(0.00118560535162 2.5550642425e-05 0)
(0.00122962017545 2.61360127029e-05 0)
(0.00127276350163 2.68499402172e-05 0)
(0.00130996006992 2.65501085355e-05 0)
(0.00135216792701 2.58522020129e-05 0)
(0.00139811652049 2.56569942772e-05 0)
(0.00143950640657 2.67004098315e-05 0)
(0.00147395381695 2.60860378247e-05 0)
(0.00150599786146 2.26144391229e-05 0)
(0.00153691861719 2.01356757806e-05 0)
(0.00156493188398 1.90020528375e-05 0)
(0.00159041882737 1.77447261217e-05 0)
(0.00161309221508 1.63740176553e-05 0)
(0.00163218292395 1.45585262618e-05 0)
(0.0016477269054 1.27730783491e-05 0)
(0.00165963575355 1.25750418426e-05 0)
(0.00167013793553 1.42906711755e-05 0)
(0.00168418442138 1.35763819815e-05 0)
(0.00169124098919 6.97286243913e-06 0)
(0.00169487845149 3.23280382476e-06 0)
(0.00168639731999 -2.97334082923e-07 0)
(0.00165515031974 -6.89026973808e-06 0)
(0.00162169949834 -5.69728384881e-06 0)
(0.00160798092716 -6.5292152048e-07 0)
(0.00160181674339 -2.64454775176e-06 0)
(0.00156349020269 -4.47214537122e-06 0)
(0.00153596754963 3.4331270296e-06 0)
(0.00150578432919 -1.53545921114e-06 0)
(0.00158339028377 -3.17681466145e-05 0)
(0.00147409343914 -6.83230794793e-05 0)
(0.00119000061844 -6.30956121659e-05 0)
(0.0010548786365 -4.49071443067e-05 0)
(0.000979982253028 -4.40238322251e-05 0)
(0.000921049401492 -4.39045355243e-05 0)
(0.000858708311783 -4.54266226916e-05 0)
(0.000770562142728 -4.82734012269e-05 0)
(0.000677561768538 -4.910128723e-05 0)
(0.000572984115857 -4.69238629831e-05 0)
(0.000475307286364 -4.5355787395e-05 0)
(0.000408953846332 -4.71008057331e-05 0)
(0.000297985326665 -3.64930802741e-05 0)
(0.000254227092402 -3.12414422484e-05 0)
(0.000164248378005 -1.88815742526e-05 0)
(0.000166809642201 -2.50826734707e-05 0)
(7.07463062003e-05 -1.71674302424e-05 0)
(5.24813435348e-05 -3.14280030876e-05 0)
(1.17135238342e-05 5.61703638458e-05 0)
(5.00708127801e-05 6.22648730723e-05 0)
(8.69480893228e-05 5.61260050797e-05 0)
(0.000111672820288 4.57818496647e-05 0)
(0.000159988368471 4.54553703201e-05 0)
(0.000203311616623 3.38850873069e-05 0)
(0.000230871872791 2.50137845835e-05 0)
(0.000253223350342 3.25933387589e-05 0)
(0.000278218498777 4.1245701603e-05 0)
(0.000306104813071 4.2010039152e-05 0)
(0.000333768795564 4.12594532937e-05 0)
(0.00036077816461 4.18759253335e-05 0)
(0.000387767888054 4.07933036426e-05 0)
(0.000414505487927 3.91345139256e-05 0)
(0.000442636268155 3.97621748745e-05 0)
(0.000472082971259 4.57605235551e-05 0)
(0.000503089583075 4.94507044019e-05 0)
(0.000532384870504 4.46993182819e-05 0)
(0.000551144948119 4.12032609561e-05 0)
(0.000583401999473 4.41401538346e-05 0)
(0.000622813026933 5.25140814921e-05 0)
(0.000665342897831 6.13553379457e-05 0)
(0.000710235156983 6.34774631364e-05 0)
(0.000752161152155 6.08983313139e-05 0)
(0.000787706067392 5.8977612088e-05 0)
(0.000829709110292 5.89021664099e-05 0)
(0.000871619628459 5.85784968232e-05 0)
(0.000911210803201 5.75927417833e-05 0)
(0.000950022424258 5.65610199839e-05 0)
(0.000988723728822 5.59942197166e-05 0)
(0.00102685461188 5.63808214698e-05 0)
(0.0010624420639 5.63606115752e-05 0)
(0.00110211160626 5.55651986609e-05 0)
(0.00114120748156 5.78784119461e-05 0)
(0.00118033712383 6.08014410335e-05 0)
(0.00122812037289 6.08742453599e-05 0)
(0.00126949898864 6.17124644492e-05 0)
(0.00130691935763 6.22789824608e-05 0)
(0.00135185371967 6.07882714399e-05 0)
(0.00140282432849 5.80303732582e-05 0)
(0.00144531515221 5.29069805371e-05 0)
(0.00145629352046 4.6621621391e-05 0)
(0.00147562586238 4.26983056372e-05 0)
(0.00150915331004 4.05693431115e-05 0)
(0.00153890282863 3.82972614884e-05 0)
(0.00156833786299 3.52517786312e-05 0)
(0.00159639127115 3.11675432732e-05 0)
(0.00161924858982 2.61955296612e-05 0)
(0.00164189379236 2.09009311838e-05 0)
(0.00165985469847 1.61053913722e-05 0)
(0.00166703910039 1.2654656894e-05 0)
(0.00165702452254 9.38999230073e-06 0)
(0.00165183569386 5.26347093923e-06 0)
(0.00169447798339 -3.97900759371e-06 0)
(0.00167884017108 -2.10180906126e-05 0)
(0.00165895670718 -3.2813239281e-05 0)
(0.00166263316251 -3.11151892141e-05 0)
(0.00165261119823 -2.67871697581e-05 0)
(0.00163419806657 -3.22205301956e-05 0)
(0.00161820236353 -3.92395637694e-05 0)
(0.00160313763478 -4.39750459987e-05 0)
(0.00148872529224 -5.45494050749e-05 0)
(0.001560309193 -0.000130991298413 0)
(0.00143541390327 -0.000226337937557 0)
(0.00119785836219 -0.000225191727088 0)
(0.000996326906551 -0.000163346933159 0)
(0.000893587717358 -0.000120764003539 0)
(0.000876636762692 -0.000112311348144 0)
(0.000820116134745 -0.000124269306823 0)
(0.000752250968324 -0.000143503211191 0)
(0.000652771562455 -0.000151985619658 0)
(0.000545898399169 -0.000144758066353 0)
(0.000438189580217 -0.000122934477855 0)
(0.000385842136105 -0.000115677363254 0)
(0.000321532269193 -0.000103914511742 0)
(0.000266093130253 -9.14605210295e-05 0)
(0.000211975928218 -7.55710111635e-05 0)
(0.00016410666722 -7.46439324988e-05 0)
(0.000100184213084 -7.69182786924e-05 0)
(4.57007694327e-05 -0.000123054051745 0)
(1.63252233748e-05 9.69450902647e-05 0)
(4.69130142305e-05 0.000103753628404 0)
(7.2796900027e-05 9.70963215998e-05 7.31883536531e-29)
(0.000121604988885 9.7801747527e-05 -6.722455879e-29)
(0.000167299149444 9.68757992043e-05 -5.86434646607e-29)
(0.000197491153399 8.0730071297e-05 5.32664699166e-29)
(0.000220724898456 5.18334624865e-05 -5.31881908629e-29)
(0.000243532069622 5.7541044514e-05 5.12288960405e-29)
(0.000269488439396 6.91710221631e-05 0)
(0.00029842877057 7.21805377647e-05 0)
(0.000327566982543 7.10751214129e-05 0)
(0.000355109215645 6.93984281977e-05 0)
(0.00038176049778 6.75589198212e-05 0)
(0.000407905023674 6.76438825699e-05 0)
(0.000436162377365 7.05295657554e-05 0)
(0.000465846912165 7.20078546465e-05 0)
(0.000455354011523 6.52491731706e-05 0)
(0.000462103197593 6.17180960325e-05 0)
(0.000493773341321 6.91040029584e-05 0)
(0.000542241495604 8.64531619187e-05 0)
(0.000617132739617 0.000104797281022 0)
(0.000667872255434 0.000110086412394 0)
(0.000702247713067 0.000106991717571 0)
(0.000743615072729 0.000103493862396 0)
(0.000786483675617 0.000101887158042 0)
(0.000826231433385 0.000101322381795 0)
(0.000865608587407 0.000100009369741 0)
(0.000905379775528 9.84981887606e-05 0)
(0.000944606540427 9.73020414732e-05 0)
(0.000982946953365 9.67050164793e-05 9.24977006401e-29)
(0.00102237781913 9.64127711457e-05 -8.94087481565e-29)
(0.00105569641043 9.60054758599e-05 0)
(0.00109441397637 9.6223785139e-05 0)
(0.00114043210413 9.82290978877e-05 0)
(0.00116860209603 0.000103575706747 0)
(0.00121703251573 0.000107889598009 0)
(0.00127063051366 0.000107141812645 0)
(0.00130073915209 0.000106982977669 0)
(0.00134742809175 0.000108582816515 0)
(0.00139998529134 0.000103616546791 0)
(0.00144280844524 8.98975959063e-05 0)
(0.00147591702972 7.80231147076e-05 0)
(0.0015068694974 7.45864501566e-05 0)
(0.00153761653119 7.30361687199e-05 0)
(0.0015658889385 6.95408630085e-05 0)
(0.0015913290118 6.45588607084e-05 0)
(0.00161410738098 5.78907935261e-05 0)
(0.00163417443151 5.02685513222e-05 0)
(0.0016516296097 4.17135425499e-05 0)
(0.00166609206295 3.15344762535e-05 0)
(0.00167706235048 2.11065120189e-05 0)
(0.00168475230442 1.47967848527e-05 0)
(0.00168997464592 1.30043715222e-05 0)
(0.00168445334096 -7.00858421778e-07 0)
(0.00166841047871 -2.2362184429e-05 0)
(0.00166925314707 -3.26969248833e-05 0)
(0.00166612669238 -3.52198253388e-05 0)
(0.00165211904769 -3.8920831684e-05 0)
(0.00163272120091 -4.60734046988e-05 0)
(0.00161050565065 -5.81845157379e-05 0)
(0.00157355304449 -8.36364026922e-05 0)
(0.00153466574906 -0.000125509326451 0)
(0.00149570127902 -0.000262112513719 0)
(0.00128468322831 -0.000386304235116 0)
(0.00102104519438 -0.000335014776189 0)
(0.00093161287203 -0.000255533794904 0)
(0.000888397948123 -0.000203236864614 0)
(0.000818960901746 -0.000184347536318 0)
(0.000749514852804 -0.000202562432971 0)
(0.000669454770232 -0.000229115681088 0)
(0.00057452618466 -0.000235214163708 0)
(0.000488699160769 -0.000216992399302 0)
(0.00043379524815 -0.000195250456247 0)
(0.000381570330953 -0.000183086198852 0)
(0.00031638639565 -0.000171028901926 0)
(0.000251487554697 -0.000152102237227 0)
(0.000192563585407 -0.000132043401555 0)
(0.00014514872543 -0.000135949323651 0)
(9.92750234793e-05 -0.000171164981255 0)
(2.50166722826e-05 -0.000167575061957 0)
(1.50138883787e-05 0.00014095718277 0)
(2.2799994636e-05 9.87883252898e-05 0)
(5.74183518338e-05 0.00014390299543 0)
(0.000101726200514 0.000143741816677 0)
(0.000143362072897 0.000125668180459 0)
(8.97417329133e-05 5.53920077966e-05 0)
(0.00011457885577 5.95737461421e-05 0)
(0.00020625029555 0.00010417454471 0)
(0.000250493242356 0.000109992238768 0)
(0.00028448830872 0.000104977073192 0)
(0.000316881788641 0.000101422273203 0)
(0.000346273536543 9.72058855326e-05 0)
(0.000373503480119 9.42779479906e-05 0)
(0.000396945532758 9.01462747648e-05 0)
(0.000397410748365 8.08918263195e-05 0)
(0.000397219749541 7.40109846944e-05 0)
(0.000413948443682 7.63152813812e-05 0)
(0.000453474998422 9.40335284752e-05 0)
(0.0005197284345 0.000123125956684 0)
(0.000582117937201 0.000148940485455 0)
(0.000619129455064 0.000155490283105 0)
(0.000657520576187 0.000151852276847 0)
(0.000698724411971 0.000148025019806 0)
(0.000738882293553 0.000145200102389 0)
(0.000778328675636 0.000142568011562 0)
(0.000817361422352 0.00014045077782 0)
(0.000856341716581 0.000138964931933 0)
(0.000897272634859 0.000137700293013 0)
(0.00093550442485 0.000136142861038 0)
(0.000976520563321 0.000135423119027 0)
(0.00101107526916 0.000134335277595 0)
(0.00105228188635 0.00013379840774 0)
(0.00108150172688 0.000132223499007 0)
(0.00112462849857 0.000137441504668 0)
(0.00117799688954 0.000146848639345 0)
(0.00121067441174 0.000152480491362 0)
(0.00126352226014 0.000154204642744 0)
(0.00131681707978 0.000154052332811 0)
(0.00135951970046 0.000152969672883 0)
(0.00140008642027 0.000144515502799 0)
(0.00143912808685 0.000129125408868 0)
(0.0014746350247 0.000114896450025 0)
(0.00150762049503 0.000106710826693 0)
(0.00153867853659 0.000101379296767 0)
(0.00156699993984 9.53177846914e-05 0)
(0.00159247033641 8.77478582708e-05 -7.84040677775e-29)
(0.00161522596866 7.86955500188e-05 7.88417569987e-29)
(0.00163524862402 6.8451563456e-05 0)
(0.00165250707346 5.70633760391e-05 0)
(0.00166677522025 4.4584973952e-05 0)
(0.0016776500322 3.22220225866e-05 0)
(0.00168453717408 2.13259147309e-05 0)
(0.0016866668117 9.37813671987e-06 0)
(0.00168274968915 -8.2322025006e-06 0)
(0.00167602205347 -2.563288606e-05 0)
(0.00167049018428 -3.7170892156e-05 0)
(0.00166203056643 -4.66551140216e-05 0)
(0.00164622060394 -5.70925764786e-05 -1.51297332764e-28)
(0.0016225295787 -7.12728139421e-05 1.75649486308e-28)
(0.00158824184633 -9.4982325586e-05 0)
(0.0015348420894 -0.000139097334132 0)
(0.00145709377941 -0.000230728463168 0)
(0.00133671856909 -0.000401670767366 0)
(0.00120266864161 -0.000537378282976 0)
(0.00107784052281 -0.000495590422193 0)
(0.000889480673021 -0.000335638207628 0)
(0.000801423879222 -0.000265925687098 0)
(0.000741254433151 -0.000257163353935 0)
(0.000677841340642 -0.00027893455599 0)
(0.000619826357511 -0.000314860896292 0)
(0.000546573112952 -0.000323592812118 0)
(0.000472624396875 -0.000298410211664 0)
(0.000401640971737 -0.000267121846055 0)
(0.00031816903858 -0.000238114714924 0)
(0.000257261705864 -0.000225072857011 0)
(0.000201393582952 -0.000215885417307 0)
(0.000142042725695 -0.000191134185214 0)
(8.157376967e-05 -0.000151449703343 0)
(5.92169838521e-05 -0.000189044590035 0)
(1.95773388807e-05 -0.000216657610276 0)
(1.2030389384e-06 0.000142155088949 0)
(1.17274397822e-05 0.000119327774741 0)
(4.89586989651e-05 0.00018429013167 0)
(8.41087362351e-05 0.000173791786241 0)
(9.53220075938e-05 0.0001234673615 0)
(7.93718954195e-05 7.52885695077e-05 0)
(0.000136085601811 0.00012024028859 0)
(0.000199184257695 0.00016110121863 0)
(0.000229485760006 0.000151233862478 0)
(0.000265814343195 0.000140566079641 0)
(0.000300360740858 0.000135605398943 0)
(0.000331327029366 0.000128385917391 0)
(0.000346227121224 0.000111840475075 0)
(0.0003361030773 9.10324169357e-05 0)
(0.000353932170659 8.89735221176e-05 0)
(0.000387848845689 0.000100645335158 0)
(0.000437316732478 0.000123504549403 0)
(0.000494091929683 0.000153850389645 0)
(0.000540001310716 0.000177206479987 0)
(0.000570076394159 0.000185768703098 0)
(0.000607297508624 0.000190950776688 0)
(0.00064892525066 0.000192610781091 0)
(0.000688593163904 0.00018951049169 0)
(0.00072809184091 0.000185292893645 0)
(0.000767036758691 0.000181828505349 0)
(0.00080540680893 0.000179838257283 0)
(0.000846264367126 0.00017870758942 0)
(0.00088349811332 0.000176823966851 0)
(0.000926738981158 0.00017578580641 0)
(0.000960353215097 0.000173263119742 0)
(0.00100510400243 0.000173072410355 8.87166012154e-29)
(0.00102731536627 0.000169761723176 -8.46066849613e-29)
(0.00107810118405 0.000174589129471 0)
(0.00112951420683 0.000182375097212 0)
(0.00116604939074 0.00019092931294 0)
(0.0012228989125 0.000201709079953 0)
(0.00127157587146 0.000205468427369 0)
(0.00131631288786 0.000200955534233 0)
(0.00135823151496 0.000193282730699 0)
(0.00139840005541 0.000182262134322 0)
(0.00143734801966 0.000167143926615 0)
(0.00147408684883 0.000151975839598 0)
(0.00150829959723 0.000140402356142 0)
(0.00153990601581 0.000131298555835 0)
(0.00156855985616 0.000122144330018 0)
(0.00159427040384 0.000111822617631 0)
(0.00161713794836 0.000100123910612 0)
(0.00163713410377 8.71387507646e-05 0)
(0.00165413571836 7.28868051853e-05 0)
(0.00166789370738 5.7508547895e-05 0)
(0.00167799729812 4.16579576706e-05 0)
(0.00168379767028 2.56973803729e-05 0)
(0.00168463248981 8.28587262775e-06 0)
(0.00168053347869 -1.15220148103e-05 0)
(0.00167378659723 -3.03323138657e-05 0)
(0.00166582607422 -4.61179832156e-05 0)
(0.00165322741542 -6.19191676772e-05 0)
(0.00163128127617 -8.14828674434e-05 0)
(0.00159595728741 -0.000109643611803 0)
(0.00154114099239 -0.000155368379608 0)
(0.0014590589434 -0.000232462087986 0)
(0.00135059004619 -0.000355425609312 0)
(0.00121777945673 -0.000513584592267 0)
(0.00114401299243 -0.000634758767133 0)
(0.00106942139897 -0.000618048844596 0)
(0.000904427297185 -0.000474067127308 0)
(0.000784146548546 -0.000379429328498 0)
(0.000686467157537 -0.000343148218321 0)
(0.000606569625142 -0.000348975599458 0)
(0.000545041072361 -0.000378780466849 0)
(0.000485750527265 -0.000397823992395 0)
(0.000412731932384 -0.000374895510847 0)
(0.000325106339699 -0.000323692414004 0)
(0.000265026275558 -0.000300505449604 0)
(0.000208537957172 -0.000291653138005 0)
(0.000152472566317 -0.000277763591507 0)
(0.000100226504357 -0.00022724712748 0)
(6.34239528999e-05 -0.00019153346329 0)
(3.94073308557e-05 -0.000234037875016 0)
(9.52483302547e-06 -0.000239742786505 0)
(-7.99437153712e-07 0.000133141317826 0)
(1.28542378614e-05 0.000142916457452 0)
(4.66003336186e-05 0.0002085054988 0)
(6.74637712013e-05 0.000182807195465 0)
(5.3673706828e-05 9.96107160172e-05 0)
(7.63739851393e-05 0.00010538705893 0)
(0.00015611052832 0.000182766018889 0)
(0.000183444748871 0.000192523394958 0)
(0.000210673988039 0.000184160757966 0)
(0.000243691182477 0.000176931421324 0)
(0.000278170972719 0.000164626873225 0)
(0.000275493581953 0.000133764341115 0)
(0.000263035793999 0.000103269894425 0)
(0.000290327767822 0.000105096161028 0)
(0.000327492182084 0.000122807310916 0)
(0.000386566679289 0.000152589262844 0)
(0.000445875053402 0.000180742725297 0)
(0.000490838028114 0.000198624296556 0)
(0.000516104210112 0.000206481889199 0)
(0.000554673725121 0.000220353773684 0)
(0.000597427868966 0.000231470905033 0)
(0.000636084111648 0.000232723668466 0)
(0.000674657099729 0.000229350541103 0)
(0.000713225890444 0.000225034685712 0)
(0.000753951451638 0.000221909332371 0)
(0.000792346776427 0.000218624526292 0)
(0.000825801178203 0.000217091889124 0)
(0.000873293339268 0.000217813780819 0)
(0.000902762347704 0.000213027704315 0)
(0.000953002487916 0.000212006996984 0)
(0.000968907598675 0.000206144233336 0)
(0.00102621642993 0.000213192756585 0)
(0.00104939787864 0.000216404017726 0)
(0.00111346412024 0.000230522107324 0)
(0.0011762478884 0.000245516524848 0)
(0.00122586121756 0.000253428421978 0)
(0.00127070807487 0.000251388077864 0)
(0.00131397148129 0.000244028058296 0)
(0.00135589307223 0.000234032335684 0)
(0.00139664432953 0.000221325474987 0)
(0.00143611521758 0.000205651503185 0)
(0.00147371367417 0.000189271040074 0)
(0.00150887627807 0.000174732302442 0)
(0.00154118144169 0.000161961147656 0)
(0.00157039411597 0.000149441548916 0)
(0.00159651180669 0.000136102252651 0)
(0.00161959939718 0.000121528034473 0)
(0.00163955890371 0.000105594049944 0)
(0.00165615552597 8.82274424071e-05 0)
(0.00166908554116 6.94901547999e-05 0)
(0.00167794385343 4.96726623289e-05 0)
(0.00168219837649 2.88796103142e-05 0)
(0.00168150545117 6.78766855081e-06 0)
(0.00167629159358 -1.61297515311e-05 0)
(0.0016677483198 -3.81413700495e-05 0)
(0.00165539435976 -5.97393768042e-05 0)
(0.00163517128398 -8.49205264627e-05 0)
(0.00160152653862 -0.000118944940245 0)
(0.00154904466054 -0.000168451437732 0)
(0.00147193131364 -0.000241485768689 0)
(0.00137019347006 -0.000344775773261 0)
(0.00125478907392 -0.000472902259969 0)
(0.00110716721216 -0.000586185292119 0)
(0.00109967597883 -0.000731649098945 0)
(0.000963822615952 -0.000701696256529 0)
(0.000822582413082 -0.000570868317028 0)
(0.000727839310181 -0.000489484022973 0)
(0.000626257556501 -0.000438985973009 0)
(0.000532828414127 -0.000421857459871 0)
(0.000473616752749 -0.000453445570537 0)
(0.000414950968158 -0.000478294526133 0)
(0.000332603348914 -0.000426774122604 0)
(0.000268993665293 -0.000379649814025 0)
(0.000217405560384 -0.000364793294831 0)
(0.000159190212068 -0.000351255876718 0)
(0.000114164172417 -0.000325690336242 0)
(7.30092051852e-05 -0.000253704417769 0)
(4.4594231889e-05 -0.000221579582671 0)
(2.49264191611e-05 -0.000258680673836 0)
(6.53408707946e-06 -0.000255053166744 0)
(3.82168563907e-06 0.000143200141197 0)
(2.67371100803e-05 0.000180836583147 0)
(5.69492974338e-05 0.000224324696167 0)
(6.33721408794e-05 0.000216454814876 0)
(4.72550190417e-05 0.000125110601535 0)
(0.000100999872987 0.000175677441116 0)
(0.000149990508949 0.000216866634745 0)
(0.000167442264272 0.000216061527225 0)
(0.000192331781597 0.000210706957457 0)
(0.000214716174334 0.000203638443618 0)
(0.000252616347507 0.000187304579402 -2.42370825561e-28)
(0.000213102642169 0.000123584151555 1.57850466576e-28)
(0.000246259975701 0.000125652876443 0)
(0.000273705455516 0.000141072105443 0)
(0.00032728316326 0.00017589755405 0)
(0.000390415362103 0.000214037214755 0)
(0.000435793711896 0.000229026227024 0)
(0.000454707269796 0.000226455842122 0)
(0.000494962661925 0.000241881376187 0)
(0.000542415890229 0.000262819753958 0)
(0.000580326084706 0.000271018101859 0)
(0.000619161250862 0.000271728250453 0)
(0.000658480260379 0.000269248677278 0)
(0.000697718057678 0.000264640320909 0)
(0.000733843579677 0.000258891943178 0)
(0.000768002245428 0.000254894311709 0)
(0.000813717128566 0.000256207444484 0)
(0.000838289570933 0.000254038988036 0)
(0.000894612728625 0.000254145809102 0)
(0.000906585556376 0.000240922184312 0)
(0.000967776523134 0.000248380202659 0)
(0.000992518372088 0.000253929347218 -8.34238936095e-29)
(0.0010555150547 0.000269301464439 8.42910743783e-29)
(0.00111017017857 0.000288168354398 0)
(0.00117543368966 0.000302632935364 0)
(0.00122323356572 0.00030258489545 0)
(0.00126686531353 0.000295984588558 0)
(0.00131018135468 0.000286760151709 0)
(0.00135305515489 0.000275422591701 0)
(0.00139484085019 0.000261484304121 0)
(0.00143513049821 0.000244855141922 0)
(0.00147358959804 0.000226991909331 0)
(0.0015096416999 0.00020971772115 0)
(0.00154274929735 0.000193451807099 0)
(0.00157265484722 0.000177431248766 0)
(0.00159931165445 0.000160803442245 0)
(0.00162267562758 0.000143025959287 0)
(0.00164251913395 0.000123771290814 0)
(0.00165849515905 0.000102838215556 0)
(0.00167025385749 8.01936104855e-05 0)
(0.00167741523032 5.5977429382e-05 0)
(0.00167957772445 3.03701329343e-05 0)
(0.0016765849752 3.6529104563e-06 0)
(0.00166870099134 -2.35299080712e-05 0)
(0.00165595193694 -5.10450578832e-05 0)
(0.00163633058059 -8.14490256277e-05 0)
(0.00160500074859 -0.000120061945222 0)
(0.00155655090109 -0.000172633122731 0)
(0.00148817276556 -0.000244112309495 0)
(0.00140237855455 -0.000337523235283 0)
(0.00130470441292 -0.00045094109975 0)
(0.00120272910273 -0.000573173758261 0)
(0.00111634510811 -0.000695171208439 0)
(0.00105101192937 -0.000818631532389 0)
(0.000927417572079 -0.000812844195597 0)
(0.000733762728214 -0.000651444051063 0)
(0.000663857503083 -0.00058883627593 0)
(0.000574051768257 -0.00054915641113 0)
(0.00047694547768 -0.000525602721052 0)
(0.000401963728552 -0.000539912857834 0)
(0.000336493297089 -0.000531608441772 0)
(0.000271856330614 -0.000470628068326 0)
(0.000223983981469 -0.000442157070474 0)
(0.000167560009012 -0.000424559620181 0)
(0.000116394767112 -0.000403594828499 0)
(7.9250811531e-05 -0.000347457138804 0)
(5.10042816885e-05 -0.000288643404342 0)
(2.14112594679e-05 -0.00024657664325 0)
(7.50821525818e-06 -0.000269832348591 0)
(2.51483412971e-06 -0.000269408936566 0)
(8.08076331751e-06 0.000163958247675 0)
(3.5443948854e-05 0.000213788643472 0)
(6.01739221756e-05 0.000232010146906 0)
(3.9541830439e-05 0.000154474861621 0)
(4.64387182006e-05 0.000151861504717 0)
(0.000107109733074 0.000229808868585 0)
(0.000130782320675 0.000238292587837 0)
(0.000151960772096 0.000238143748769 0)
(0.000167359190594 0.000231097687636 0)
(0.000194199302924 0.000225798472687 0)
(0.000170188325151 0.000157092048321 0)
(0.000195437928796 0.000144910859673 0)
(0.000227310506202 0.000156115156301 0)
(0.00026075375584 0.00018233287653 0)
(0.000329483800043 0.000235753622889 0)
(0.000378233942474 0.000260668968171 0)
(0.000393138685376 0.000251992815517 0)
(0.000428283646503 0.000261363882117 0)
(0.000479815581801 0.000287974177351 0)
(0.000522386812984 0.000304341483579 0)
(0.000559252269785 0.000309275601375 0)
(0.000596880066319 0.000309906480359 0)
(0.00063762714599 0.000309438110063 0)
(0.000676578490149 0.000304635027817 0)
(0.000717250814554 0.00029686970414 0)
(0.000744776187134 0.000293056055884 0)
(0.000795804928304 0.000296040303658 0)
(0.000825874589855 0.000291221001117 0)
(0.000850791698819 0.000283701592807 0)
(0.000895492511253 0.000285472316221 0)
(0.000962805725775 0.000297836096249 0)
(0.000992788543245 0.000301230065555 0)
(0.00103897129406 0.000321878983133 0)
(0.00111813532807 0.000349845753414 0)
(0.00116920629228 0.000356544686096 0)
(0.00121577603429 0.000350294163375 0)
(0.00126103693372 0.000340971499456 0)
(0.00130560002511 0.000330457103112 0)
(0.00134971984044 0.000318043873967 0)
(0.00139281105763 0.0003029110157 0)
(0.00143424694197 0.000285000571849 0)
(0.0014737008526 0.000265379766105 0)
(0.00151072936731 0.0002454386226 0)
(0.00154478458977 0.00022579415092 0)
(0.00157553271069 0.000206182390216 -7.59643666804e-29)
(0.00160283493567 0.000185986087329 7.57188867593e-29)
(0.00162649014777 0.000164589748678 0)
(0.00164610628315 0.000141498494876 0)
(0.00166122270412 0.000116407204531 0)
(0.00167144033842 8.92332257184e-05 0)
(0.00167637417825 6.00856723422e-05 0)
(0.00167566535109 2.92472753123e-05 0)
(0.0016691298234 -2.85573289742e-06 0)
(0.00165657540844 -3.60563220437e-05 0)
(0.00163694047476 -7.17708695626e-05 0)
(0.00160720646946 -0.000114100911026 0)
(0.00156274222739 -0.00016872341391 0)
(0.00150135342869 -0.000238749155179 0)
(0.00142751874967 -0.000324732523685 0)
(0.00134815424119 -0.000426995573354 0)
(0.00126419727838 -0.000541766518715 0)
(0.00117958250826 -0.000658661649508 0)
(0.00110489476229 -0.000773636117116 0)
(0.00102795394274 -0.000889632343909 0)
(0.00101040059688 -0.000999594595107 0)
(0.000739804276249 -0.000795512560032 0)
(0.00058536830018 -0.0006862099754 0)
(0.000491865471903 -0.000645869167893 0)
(0.000391237367964 -0.000612689469709 0)
(0.000318392913544 -0.000602615001852 0)
(0.000266728264795 -0.000568720232141 0)
(0.000221493708398 -0.00051979792435 0)
(0.000174443116841 -0.000500455678132 0)
(0.000120225741131 -0.000479430865949 0)
(7.67711159478e-05 -0.000442589375772 0)
(4.41007424944e-05 -0.000373136917766 0)
(1.7509762462e-05 -0.000321350460949 0)
(-8.24145621533e-06 -0.000273862470458 0)
(-1.73183379757e-05 -0.00027089599171 0)
(-7.24126823191e-06 -0.000271588589255 0)
(1.06473742755e-05 0.000188523311241 0)
(3.72063937492e-05 0.000237697670718 0)
(4.60037234652e-05 0.000237846803129 0)
(3.4428598689e-05 0.000167290787961 0)
(5.99501103874e-05 0.000192658342067 0)
(0.000102064191035 0.000253665666522 0)
(0.000112399703063 0.000257424908793 0)
(0.000136739843951 0.000257783162131 0)
(0.000137273990453 0.000233457893173 0)
(0.000174399365426 0.000253176810263 0)
(0.000150352260586 0.000175025373591 0)
(0.000182710767871 0.000173856931009 0)
(0.000210257021788 0.000189997552103 0)
(0.000259598304761 0.000237600697409 0)
(0.000316482847274 0.000286134406178 0)
(0.000351783448686 0.000294994298024 0)
(0.000365630625024 0.000284220226972 0)
(0.000408888304142 0.000305408674358 0)
(0.000456424998133 0.000331885364194 0)
(0.000496924317216 0.000344485294371 0)
(0.00053603705776 0.000348292239679 0)
(0.00057245450419 0.000347743696867 0)
(0.000612218252636 0.000347507759215 0)
(0.0006456340426 0.000341527918174 0)
(0.000677824493768 0.00032949312622 0)
(0.000729447262281 0.000332525955614 0)
(0.000743022918332 0.000326837901015 0)
(0.000815672611587 0.000334748868929 0)
(0.000828972743254 0.000326805199525 0)
(0.000901365491565 0.000340569718601 0)
(0.000918251414943 0.00033588100725 0)
(0.000996161426059 0.000358411205165 0)
(0.00105423719306 0.000386023494107 -8.75453837916e-29)
(0.00110941413337 0.000405093982166 8.72161383212e-29)
(0.0011590753012 0.000405900736233 0)
(0.00120676107574 0.000398003985157 0)
(0.00125392130162 0.0003875265283 0)
(0.00130023558561 0.000375795620947 0)
(0.00134584167981 0.000362192869376 0)
(0.00139039928279 0.000345780584387 0)
(0.00143328735825 0.000326356790285 0)
(0.00147404918568 0.000304740782288 0)
(0.00151225775331 0.000282091945409 0)
(0.00154743861288 0.000259103120543 0)
(0.00157922152979 0.000235789574178 0)
(0.00160729313314 0.000211697653016 0)
(0.00163124539504 0.000186172758689 0)
(0.00165052777302 0.000158606517395 0)
(0.00166456694557 0.000128633462723 0)
(0.00167287031525 9.61556743708e-05 0)
(0.00167497044858 6.12760136928e-05 0)
(0.00167042289692 2.42489045323e-05 0)
(0.00165881034022 -1.47073316717e-05 0)
(0.00163936607542 -5.61969804985e-05 0)
(0.00161023093407 -0.000102756436072 0)
(0.00156839216196 -0.000158853599827 0)
(0.00151113316513 -0.000228597732864 0)
(0.00144268439625 -0.00030900463419 0)
(0.00137527440031 -0.000399027628096 0)
(0.00131073357176 -0.000505095912982 0)
(0.00123585168698 -0.000624917397461 0)
(0.0011490819491 -0.000738257938402 0)
(0.0010735866633 -0.000839323692495 0)
(0.00101649971626 -0.000944455045856 0)
(0.00099703462506 -0.00106411962098 0)
(0.000896183950473 -0.00106712534836 0)
(0.000561406786703 -0.000810469480883 0)
(0.000402377107654 -0.000757495834805 0)
(0.000310061964848 -0.000711817322215 0)
(0.000242991542083 -0.000658633238287 0)
(0.00020086059883 -0.000601870305576 0)
(0.000168006505842 -0.000566205745808 0)
(0.000125834026362 -0.00055336749369 0)
(7.711140346e-05 -0.00052758967516 0)
(3.48632319418e-05 -0.000475014905188 0)
(-1.28426173632e-06 -0.000408245957727 0)
(-3.22194091938e-05 -0.000349012644266 0)
(-5.05854612351e-05 -0.000295915843784 0)
(-4.67337329347e-05 -0.000262382813704 0)
(-1.90650056954e-05 -0.000246352435391 0)
(1.18278873039e-05 0.00021658568632 0)
(3.83531649732e-05 0.000253233589311 0)
(3.80556879077e-05 0.000235146964786 0)
(3.12982328613e-05 0.000178406809328 0)
(6.82482423844e-05 0.00024590912211 0)