/*--------------------------------*- C++ -*----------------------------------*\
| =========                 |                                                 |
| \\      /  F ield         | OpenFOAM: The Open Source CFD Toolbox           |
|  \\    /   O peration     | Version:  v1806                                 |
|   \\  /    A nd           | Web:      www.OpenFOAM.com                      |
|    \\/     M anipulation  |                                                 |
\*---------------------------------------------------------------------------*/
FoamFile
{
    version     2.0;
    format      ascii;
    class       surfaceScalarField;
    location    "59";
    object      phi;
}
// * * * * * * * * * * * * * * * * * * * * * * * * * * * * * * * * * * * * * //

dimensions      [0 3 -1 0 0 0 0];
oriented        oriented;


internalField   nonuniform List<scalar> 
12640
(
-2.03622791125e-07
2.04886283364e-07
-4.06963333714e-07
2.03698512152e-07
-6.03149029191e-07
1.96294715004e-07
-7.78612887052e-07
1.75258288723e-07
-8.94517653292e-07
1.15988841837e-07
-9.31258108763e-07
3.74833216614e-08
-9.26818596514e-07
-3.67883503446e-09
-9.83337331575e-07
5.71724921949e-08
-1.11199395024e-06
1.29052651518e-07
-1.22750602747e-06
1.15712235645e-07
-1.33678414898e-06
1.09044708707e-07
-1.49166431262e-06
1.54426472688e-07
-1.63351837764e-06
1.41132561368e-07
-1.72795900545e-06
9.36964622094e-08
-1.79383211311e-06
6.53111056279e-08
-1.89238919962e-06
9.85700249289e-08
-2.00441705358e-06
1.12049889224e-07
-2.07727591677e-06
7.30959341232e-08
-2.08896625027e-06
1.14156402397e-08
-2.04755200461e-06
-4.23180380854e-08
-2.02941225833e-06
-1.95313580644e-08
-2.06843103423e-06
3.75591971459e-08
-2.14190141776e-06
7.15920911258e-08
-2.24951658535e-06
1.05657713991e-07
-2.35248446999e-06
1.01166186619e-07
-2.43076066961e-06
7.66364744241e-08
-2.52262641941e-06
9.02636601908e-08
-2.6060829355e-06
8.21056990602e-08
-2.65189338935e-06
4.43927478387e-08
-2.65681618654e-06
3.85906854411e-09
-2.67353388409e-06
1.53858301489e-08
-2.6850194532e-06
1.02663852967e-08
-2.62113543056e-06
-6.40802574777e-08
-2.52165735647e-06
-9.93980604954e-08
-2.3741090411e-06
-1.47847322463e-07
-2.16219651766e-06
-2.10477964559e-07
-1.91678534892e-06
-2.43773258369e-07
-1.67304267485e-06
-2.43407358119e-07
-1.42235428291e-06
-2.52179245098e-07
-1.17661401818e-06
-2.49631019399e-07
-1.02338755534e-06
-1.58385499573e-07
-9.6116101666e-07
-6.6147026295e-08
-8.57596417714e-07
-1.06879226753e-07
-7.44180150457e-07
-1.15780994386e-07
-6.26958703584e-07
-1.18749414813e-07
-5.03881004457e-07
-1.23927791536e-07
-3.80822020054e-07
-1.23470178295e-07
-2.72965340112e-07
-1.08536350903e-07
-1.91206483311e-07
-8.29191084548e-08
-1.40856869693e-07
-5.22333346602e-08
-1.27712624428e-07
-1.58035621422e-08
-1.37683287311e-07
7.10091702775e-09
-1.53841509166e-07
1.41227514005e-08
-1.70549238737e-07
1.31268588438e-08
-1.63890812741e-07
-9.0500308706e-09
-1.1559020439e-07
-5.12954459098e-08
-8.51656848148e-08
-3.73764003466e-08
-1.00137580755e-07
6.60261951775e-09
-1.15822820343e-07
8.49701703907e-09
-1.11559322895e-07
-1.07683318275e-08
-1.03739583182e-07
-1.37696985563e-08
-7.41134914567e-08
-3.26533304443e-08
7.7308035432e-08
-1.54638672801e-07
1.96025898315e-07
-1.20633564992e-07
2.86948954329e-07
-9.21635564643e-08
3.64240668811e-07
-7.81832971659e-08
4.37437788907e-07
-7.40020583534e-08
5.15698528937e-07
-7.90862356129e-08
5.98123207244e-07
-8.33243610819e-08
6.77806993558e-07
-8.06418912649e-08
7.43459520597e-07
-6.66681995259e-08
7.81919924653e-07
-3.94730106428e-08
7.83803591575e-07
-2.85102908347e-09
7.36922586588e-07
4.59345985412e-08
6.63913745868e-07
7.21288793176e-08
5.71156743669e-07
9.18529639412e-08
4.89173204258e-07
8.09846344324e-08
3.64185591118e-07
1.2418270575e-07
2.26436494265e-07
1.3626181268e-07
2.25477127961e-07
-9.3558367608e-08
2.98020049411e-07
-2.17632323746e-07
3.27807938971e-07
-3.41323175576e-07
3.19663722863e-07
-4.81510966897e-07
3.15255368737e-07
-7.06959637908e-07
3.41710475554e-07
-9.20824064736e-07
2.51705502206e-07
-1.05296213796e-06
1.29205858086e-07
-1.15247607438e-06
1.57152973399e-07
-1.24965149445e-06
2.26534368127e-07
-1.37171877593e-06
2.37587825791e-07
-1.49541503709e-06
2.32487699712e-07
-1.57915753266e-06
2.37578230252e-07
-1.65461116968e-06
2.1626835345e-07
-1.74264605039e-06
1.81535072182e-07
-1.8338668005e-06
1.56858797192e-07
-1.93490300133e-06
1.9972596708e-07
-1.98266815144e-06
1.60348917145e-07
-1.89483290343e-06
-1.50905842075e-08
-1.80317809031e-06
-8.08872475279e-08
-1.78655002754e-06
-6.01116916656e-08
-1.82482989757e-06
1.72179337602e-08
-1.98342851978e-06
1.93899075863e-07
-2.17171715523e-06
2.57965972313e-07
-2.25054368814e-06
1.82323557405e-07
-2.32913072206e-06
1.78014435238e-07
-2.48801708744e-06
2.33586880258e-07
-2.59399196211e-06
1.94934305299e-07
-2.63457247909e-06
1.21155312947e-07
-2.64718888585e-06
5.60781365303e-08
-2.63466654705e-06
-9.88616865758e-09
-2.56329372349e-06
-5.68601831574e-08
-2.46544427151e-06
-8.75056855332e-08
-2.32240668248e-06
-2.07246091221e-07
-2.1474758892e-06
-2.741935767e-07
-2.07095948272e-06
-2.22926854231e-07
-1.87466928278e-06
-4.06242165574e-07
-1.61177212134e-06
-5.06667298269e-07
-1.47945739675e-06
-3.76983279328e-07
-1.37830328947e-06
-3.56635520413e-07
-1.21727342437e-06
-4.15420351687e-07
-7.80792660009e-07
-6.0121740607e-07
-3.82241549261e-07
-4.69600704345e-07
-2.82670058417e-07
-2.11088620323e-07
-2.44936089545e-07
-1.57674653076e-07
-2.1703474191e-07
-1.50893220737e-07
-1.92412149255e-07
-1.52468808057e-07
-1.64454079001e-07
-1.55314598069e-07
-1.34687490204e-07
-1.41972950453e-07
-1.05158233158e-07
-1.16379145908e-07
-7.4593408752e-08
-8.68790423945e-08
-4.66703941781e-08
-4.77051789042e-08
-4.19111865753e-08
-1.9130089959e-09
-9.82933621528e-08
6.70185051347e-08
-1.62785457471e-07
7.4736207082e-08
-2.19935961157e-07
4.47991027218e-08
-3.83538854898e-07
1.03833913792e-07
-7.10261776327e-07
2.68771052156e-07
-9.28705150097e-07
2.03866375774e-07
-9.93749794038e-07
5.49274127765e-08
-8.84679270341e-07
-1.35829229079e-07
-5.11737518745e-07
-3.96716740645e-07
-1.67802176574e-07
-3.80530299467e-07
4.96873972235e-08
-3.75400774682e-07
1.65793772152e-07
-2.38450151582e-07
2.57876517988e-07
-1.85325797035e-07
3.32845504274e-07
-1.54010592244e-07
4.1423713512e-07
-1.56147197488e-07
5.0638464809e-07
-1.7206638917e-07
5.98908979961e-07
-1.76739843959e-07
6.83424654834e-07
-1.66167092387e-07
7.45099414222e-07
-1.29385250408e-07
7.74174301088e-07
-6.95621692993e-08
7.84862190686e-07
-1.45288781839e-08
7.86354272854e-07
4.33957360419e-08
7.53055080186e-07
1.04359412388e-07
6.92769070763e-07
1.51094174724e-07
5.89836638479e-07
1.82888998665e-07
4.59857924628e-07
2.52825579864e-07
2.51331400173e-07
3.43513802779e-07
4.75669262895e-07
-1.33263961963e-07
4.32455920716e-07
-1.78015868923e-07
3.7233928441e-07
-3.71795878785e-07
5.13273043626e-07
-6.3553601509e-07
5.79219760035e-07
-8.61034052741e-07
5.67678470394e-07
-9.43988221644e-07
3.34970269878e-07
-9.77171088163e-07
1.62352064365e-07
-1.08287810744e-06
2.62704679372e-07
-1.21825139234e-06
3.61580761635e-07
-1.35538573819e-06
3.74263337299e-07
-1.48049585541e-06
3.5717616453e-07
-1.57407835645e-06
3.31249168829e-07
-1.64974010283e-06
2.92413006297e-07
-1.7258663074e-06
2.58304439882e-07
-1.73258003481e-06
1.64172469464e-07
-1.5113604098e-06
-2.11252696143e-08
-1.23159460531e-06
-1.1981167249e-07
-1.15304137834e-06
-9.42203338109e-08
-1.2037220205e-06
-3.11032646222e-08
-1.44094279719e-06
1.75601639164e-07
-1.79453282192e-06
3.68810584383e-07
-1.98294009157e-06
3.80362129674e-07
-2.06916285367e-06
3.42202946474e-07
-2.2672348288e-06
3.7855729586e-07
-2.45772324113e-06
3.6662744153e-07
-2.53653011403e-06
3.10996779152e-07
-2.56419994793e-06
2.21189187e-07
-2.57861984489e-06
1.34598164576e-07
-2.55204037896e-06
2.84634116371e-08
-2.51916253409e-06
-4.35288378582e-08
-2.42726250821e-06
-1.48670392027e-07
-2.28502199819e-06
-2.30262087655e-07
-2.22705438822e-06
-2.64244456472e-07
-1.9707860752e-06
-5.2944849151e-07
-1.67128488686e-06
-5.22939843384e-07
-1.65784977909e-06
-4.20435423817e-07
-1.4728877713e-06
-6.94163041486e-07
-1.18441836866e-06
-6.69356557479e-07
-1.20048281378e-06
-3.46337008136e-07
-1.6697397151e-06
4.49384833428e-08
-2.40761458633e-06
1.25061918953e-07
-2.83381629467e-06
-5.66198883186e-08
-2.84392373231e-06
-2.14038207025e-07
-2.71651724612e-06
-2.98399202895e-07
-2.49653069406e-06
-3.83943620912e-07
-2.18579596606e-06
-4.76125254275e-07
-1.79585332588e-06
-5.57804422849e-07
-1.36725997447e-06
-5.83608903293e-07
-9.71517148818e-07
-5.25997902077e-07
-6.77197794175e-07
-3.95804657313e-07
-4.96034143299e-07
-2.43562894519e-07
-3.63030847953e-07
-1.48146936619e-07
-2.30538599163e-07
-7.35610080575e-08
-1.57090023973e-07
-3.7238436307e-09
-2.5017622879e-07
1.31815466616e-07
-4.92917336385e-07
3.36043813273e-07
-7.17764146554e-07
4.79387395611e-07
-8.78056553841e-07
3.50433735202e-07
-9.57429145287e-07
1.21858671767e-07
-9.14208656649e-07
-1.891448249e-07
-8.25940808461e-07
-4.92862358646e-07
-5.17437309522e-07
-6.94707976617e-07
-1.36998656847e-07
-7.59402962753e-07
6.67889504444e-08
-4.43838593723e-07
1.94095366892e-07
-3.1360319067e-07
3.00162704968e-07
-2.6088061694e-07
3.98684276859e-07
-2.55449853512e-07
4.8948486379e-07
-2.63661632147e-07
5.76856908642e-07
-2.65009700358e-07
6.5909915767e-07
-2.49413840471e-07
7.37152582376e-07
-2.08480576108e-07
8.15543174324e-07
-1.48991398007e-07
8.72411885171e-07
-7.24692329966e-08
8.74017305558e-07
4.073721322e-08
8.18107952019e-07
1.5924249726e-07
7.26924150476e-07
2.41245920828e-07
6.16290495676e-07
2.92429825467e-07
4.91129516777e-07
3.7715710755e-07
2.27066705269e-07
6.05971395227e-07
7.02404833007e-07
-9.03492132363e-08
5.22029052019e-07
-9.47672030484e-08
3.76800690085e-07
-3.63833471797e-07
7.82435867198e-07
-5.52485986779e-07
7.68439629264e-07
-4.79047457311e-07
4.94544357952e-07
-3.35470082959e-07
1.91332822139e-07
-4.81004988237e-07
3.07543762846e-07
-8.37324965615e-07
6.18232565729e-07
-1.12293329219e-06
6.46458579883e-07
-1.30547565263e-06
5.56379085436e-07
-1.45716560448e-06
5.09052668938e-07
-1.56330365838e-06
4.38153834023e-07
-1.57156305153e-06
3.01724873972e-07
-1.40026779959e-06
8.79822152005e-08
-1.15504218277e-06
-8.07530759532e-08
-1.05669609269e-06
-1.20016364742e-07
-1.0935922665e-06
-8.37203233197e-08
-1.25384345589e-06
6.48942381171e-08
-1.59807939902e-06
3.11466688104e-07
-1.87467668246e-06
4.50452152961e-07
-1.97081040339e-06
4.63146744866e-07
-2.0961098229e-06
5.03681071947e-07
-2.27485395787e-06
5.19066457782e-07
-2.38747165724e-06
4.89447789417e-07
-2.44979719467e-06
4.2775766119e-07
-2.47381640369e-06
3.33721363512e-07
-2.50458673534e-06
2.5118335871e-07
-2.49647112013e-06
1.25409328975e-07
-2.49035509471e-06
2.16577230546e-08
-2.41866464767e-06
-1.15363745915e-07
-2.35324769674e-06
-2.14459615385e-07
-2.24751197714e-06
-3.34911710848e-07
-1.97730250215e-06
-5.34212309172e-07
-1.94881992098e-06
-5.58482887716e-07
-1.81950480859e-06
-6.53702872541e-07
-1.59770871134e-06
-6.45800471182e-07
-1.86191656901e-06
-4.358261935e-07
-2.29935230685e-06
-2.41439470055e-07
-2.74882345862e-06
9.074121438e-08
-2.9495621762e-06
2.33876518443e-07
-2.90543044757e-06
6.93020714957e-08
-2.86317253081e-06
-1.10577661775e-07
-2.82912754682e-06
-2.60297403588e-07
-2.73558942127e-06
-4.04463395332e-07
-2.56817072853e-06
-5.63986968122e-07
-2.3132816411e-06
-7.44259330083e-07
-1.98012221449e-06
-9.05539436499e-07
-1.57422018638e-06
-1.00635046661e-06
-1.15060408538e-06
-9.687801843e-07
-7.93910861236e-07
-7.73334321902e-07
-5.63038163546e-07
-4.95892046746e-07
-4.67056317331e-07
-2.63962717405e-07
-4.813908972e-07
-7.71676431256e-08
-5.92612826765e-07
9.19957727389e-08
-7.26909781614e-07
2.52600758009e-07
-7.86799793631e-07
3.84145035718e-07
-7.45098368928e-07
4.27178745776e-07
-7.15300628853e-07
3.12378294161e-07
-7.14445275935e-07
1.14608706991e-07
-7.52567195456e-07
-1.56705408924e-07
-7.54581673197e-07
-4.95475522216e-07
-6.26117531078e-07
-8.27307032394e-07
-3.80866879764e-07
-1.00785244961e-06
-5.10216271973e-08
-7.7500327814e-07
1.30302713903e-07
-4.95895150108e-07
2.51189760663e-07
-3.82533662708e-07
3.60343369623e-07
-3.6533289086e-07
4.70449262211e-07
-3.74597198055e-07
5.81634343155e-07
-3.77142173699e-07
6.98814706396e-07
-3.67645420902e-07
8.19347417643e-07
-3.30108622926e-07
9.06129508277e-07
-2.36854766652e-07
9.10979918397e-07
-7.82878978478e-08
8.61090280351e-07
8.97116136601e-08
7.92830197733e-07
2.26583346596e-07
6.7974597628e-07
3.53396948898e-07
5.14808322997e-07
4.56656665433e-07
3.64017307862e-07
5.27093545201e-07
1.93057275136e-07
7.76520907065e-07
8.94780548295e-07
7.34512862059e-10
5.21973250343e-07
-9.32277203798e-08
4.70629372394e-07
-3.26146622973e-07
1.01601617568e-06
-3.93393002218e-07
8.36569399202e-07
-2.89650076891e-07
3.90925195451e-07
-3.55000157528e-07
2.56340295534e-07
-6.36896485351e-07
5.88640307179e-07
-9.08179939784e-07
8.88832299251e-07
-1.0772168914e-06
8.14963129402e-07
-1.23615692492e-06
7.1543040464e-07
-1.36482543467e-06
6.38632825732e-07
-1.32661434428e-06
4.00934558301e-07
-1.13884262377e-06
1.14786184829e-07
-1.02723439912e-06
-2.34433329751e-08
-1.06094547278e-06
-4.76813822429e-08
-1.18220206378e-06
2.87358188885e-10
-1.41840696689e-06
1.51207173012e-07
-1.7317073648e-06
3.76482598917e-07
-1.86590344232e-06
4.44057443374e-07
-1.86806077517e-06
4.50971260958e-07
-1.99694367961e-06
5.90287714235e-07
-2.16743118267e-06
6.72348449919e-07
-2.29039339485e-06
6.40512450372e-07
-2.35504786318e-06
5.53089700019e-07
-2.39449220544e-06
4.66141638288e-07
-2.44710663765e-06
3.85844942977e-07
-2.42090738779e-06
2.23910768195e-07
-2.42268335497e-06
1.26655164216e-07
-2.37120090097e-06
-2.99961156421e-08
-2.3311490067e-06
-1.55513301968e-07
-2.24583691734e-06
-2.99285652617e-07
-2.15700608963e-06
-4.23560761357e-07
-2.26732184152e-06
-4.24353891842e-07
-2.07033620604e-06
-7.57655379713e-07
-2.00530169907e-06
-7.23179984477e-07
-2.17603271534e-06
-4.82073471569e-07
-2.47659591028e-06
-1.44836659327e-07
-2.95565628772e-06
2.25784222451e-07
-3.16415982622e-06
2.87837768574e-07
-3.06460589814e-06
1.24233883989e-07
-2.98794954621e-06
-1.74525165191e-08
-2.91470353497e-06
-1.94282172154e-07
-2.84174499787e-06
-3.44479701767e-07
-2.75107940877e-06
-5.06647218364e-07
-2.62553392891e-06
-7.02228388347e-07
-2.44622885481e-06
-9.37946897245e-07
-2.13338714443e-06
-1.23590111701e-06
-1.69641646108e-06
-1.4639166339e-06
-1.24409557466e-06
-1.44711768854e-06
-8.67885364447e-07
-1.18210099244e-06
-6.92342193997e-07
-7.06166810913e-07
-6.53698918406e-07
-3.37424343347e-07
-6.90736124542e-07
-7.10552105224e-08
-7.55301022167e-07
1.3198600005e-07
-8.42214019499e-07
3.20111657311e-07
-9.30737904823e-07
4.58715461046e-07
-9.49395499762e-07
4.35820548709e-07
-9.17744527309e-07
2.73192883307e-07
-9.0463294738e-07
9.58728959107e-08
-9.44543381854e-07
-1.20714898123e-07
-9.46714092055e-07
-4.96933292337e-07
-8.69861225746e-07
-9.07259044826e-07
-7.25616694754e-07
-1.15375850433e-06
-1.63931627517e-07
-1.33821781164e-06
4.10493838139e-08
-7.01830338055e-07
1.89278557184e-07
-5.31534277702e-07
3.26889163506e-07
-5.03788148744e-07
4.60990212013e-07
-5.09588257582e-07
5.96733457773e-07
-5.13861605652e-07
7.47922131778e-07
-5.19893176995e-07
8.87398548598e-07
-4.70676163428e-07
9.36816311382e-07
-2.87235870077e-07
9.1810701903e-07
-6.04434229598e-08
8.82715234003e-07
1.24261450975e-07
8.08121643894e-07
3.00307543417e-07
6.71873490473e-07
4.88857667794e-07
5.29560845092e-07
5.9827342356e-07
3.70050651732e-07
6.86248734532e-07
1.73407223265e-07
9.72007403905e-07
1.06807636396e-06
3.0239392578e-09
5.18340765282e-07
-1.47439901726e-07
6.21384748285e-07
-2.47388048421e-07
1.11662934809e-06
-2.61234994426e-07
8.5079304282e-07
-2.21067314455e-07
3.50700315796e-07
-4.42111678892e-07
4.76914880632e-07
-7.83137252794e-07
9.29035881167e-07
-9.24580999994e-07
1.02961190814e-06
-1.03208884505e-06
9.227016786e-07
-1.08798404955e-06
7.72123979008e-07
-1.02381379739e-06
5.75376293076e-07
-8.49910822173e-07
2.27677086586e-07
-8.1650940813e-07
8.14554001714e-08
-8.95337439887e-07
5.48460527035e-08
-1.04286871135e-06
9.89244056531e-08
-1.31521374009e-06
2.71257208072e-07
-1.65192374581e-06
4.8633131571e-07
-1.74216217514e-06
4.65443763597e-07
-1.70492917886e-06
4.05488700439e-07
-1.87275348812e-06
6.17230972005e-07
-2.06658049626e-06
7.82434836594e-07
-2.17199791637e-06
7.76436975653e-07
-2.24685013554e-06
7.14311004881e-07
-2.32961035185e-06
6.34958961744e-07
-2.38804149143e-06
5.24235089749e-07
-2.30156030231e-06
2.98666125877e-07
-2.30669589386e-06
2.287230345e-07
-2.26356023766e-06
8.32668570685e-08
-2.22742272464e-06
-6.646722764e-08
-2.12985164339e-06
-2.53011457831e-07
-2.02123683894e-06
-4.07604104619e-07
-1.9926878204e-06
-4.52768951195e-07
-1.88468215634e-06
-5.34129971876e-07
-2.10206178757e-06
-5.44407954814e-07
-2.3352974427e-06
-4.97446269784e-07
-2.69890968098e-06
-1.28379044115e-07
-3.13872267634e-06
2.83982055369e-07
-3.29590355478e-06
3.72455210592e-07
-3.18175977924e-06
1.64645385489e-07
-3.08310514463e-06
1.66484241509e-08
-2.99083582992e-06
-1.18853386196e-07
-2.91996103475e-06
-2.75251696579e-07
-2.85207898024e-06
-4.23348991396e-07
-2.7995087063e-06
-5.7118162772e-07
-2.72822874707e-06
-7.8759589748e-07
-2.55625724978e-06
-1.126440498e-06
-2.21606019266e-06
-1.59602247198e-06
-1.67420197032e-06
-2.03045694026e-06
-1.0519748873e-06
-2.10207149345e-06
-5.81108399743e-07
-1.69005931499e-06
-2.79581878907e-07
-1.04246127572e-06
-1.96605199944e-07
-4.54722573724e-07
-3.44714377796e-07
4.2897208767e-08
-6.95344542772e-07
4.50572743714e-07
-1.04596504554e-06
6.43212499328e-07
-1.24391976053e-06
6.37732463664e-07
-1.34058790949e-06
5.19829410883e-07
-1.44374660211e-06
3.68114363377e-07
-1.50072963853e-06
1.46985472473e-07
-1.45601069117e-06
-1.6977154471e-07
-1.39597068337e-06
-5.60353874789e-07
-1.18405355625e-06
-1.12133512878e-06
-9.09876836429e-07
-1.42993286541e-06
-3.79537291495e-07
-1.87039467125e-06
-8.09918859155e-08
-1.00105950546e-06
9.03250952152e-08
-7.03533697065e-07
2.71493821198e-07
-6.85703926178e-07
4.54899119845e-07
-6.93923173797e-07
6.40250104641e-07
-7.00168589544e-07
8.24385123133e-07
-7.05053035214e-07
9.36042858769e-07
-5.83310215963e-07
9.60643220686e-07
-3.12694431851e-07
9.70292577688e-07
-7.08946358061e-08
9.51008163882e-07
1.42706802696e-07
8.70956908729e-07
3.79529388251e-07
7.38124449093e-07
6.20918256689e-07
5.77368155479e-07
7.58468806596e-07
4.01513163594e-07
8.61242918562e-07
2.05150643909e-07
1.16816110591e-06
1.27243013562e-06
-4.93609706906e-08
5.67930197803e-07
-2.67321622117e-07
8.3945332452e-07
-3.42411487772e-07
1.19269308332e-06
-2.40628730957e-07
7.49396795657e-07
-2.86816014525e-07
3.96628560543e-07
-6.17752310272e-07
8.07246902644e-07
-8.27249786355e-07
1.13783990993e-06
-9.07666868018e-07
1.11033152652e-06
-9.14161505498e-07
9.29521340073e-07
-9.53846724387e-07
8.12946967219e-07
-8.45311153741e-07
4.67661721241e-07
-7.64264256136e-07
1.46810079503e-07
-8.24668156942e-07
1.4151555901e-07
-9.28256260113e-07
1.57488934341e-07
-1.15685340924e-06
3.26192967942e-07
-1.49969259642e-06
6.12877657739e-07
-1.58105378612e-06
5.66750201498e-07
-1.51883739978e-06
4.02180456406e-07
-1.69613055634e-06
5.81375137767e-07
-1.93322681398e-06
8.52783677888e-07
-2.07704418758e-06
9.25040997432e-07
-2.16354477186e-06
8.61842249629e-07
-2.228363605e-06
7.7821490542e-07
-2.22037198692e-06
6.26711683138e-07
-2.15194456114e-06
4.55474958139e-07
-2.13900763423e-06
2.85374757581e-07
-2.0718559891e-06
1.61175121624e-07
-2.07493429055e-06
8.57973433066e-08
-2.02430076162e-06
-1.17156113777e-07
-1.93291036025e-06
-3.44551129359e-07
-1.89532278181e-06
-4.45767533833e-07
-1.94690282542e-06
-4.02620633604e-07
-1.9873612423e-06
-4.9714578722e-07
-2.23514121881e-06
-3.02904775912e-07
-2.80856289877e-06
6.64232168606e-08
-3.27184705214e-06
3.2411920402e-07
-3.40012340127e-06
4.02691439072e-07
-3.28288790127e-06
2.46828736895e-07
-3.18179277739e-06
5.5100559536e-08
-3.0880966742e-06
-8.59429771913e-08
-3.01474381766e-06
-2.01834402922e-07
-2.97593508155e-06
-3.25017978487e-07
-2.93238487669e-06
-4.78897015537e-07
-2.89582583407e-06
-6.2190211994e-07
-2.8537051203e-06
-8.45510199361e-07
-2.68765337523e-06
-1.31087585704e-06
-2.23750996626e-06
-2.06796054695e-06
-1.5785859226e-06
-2.71630938326e-06
-9.0177513389e-07
-2.81016818619e-06
-3.96447828785e-07
-2.22579775418e-06
1.08551267646e-08
-1.47851441058e-06
2.59191800059e-07
-7.31858746202e-07
2.86962091771e-07
-1.36504324112e-08
1.12194771143e-08
7.00396426489e-07
-5.40009774889e-07
1.17017007058e-06
-1.19937569216e-06
1.27414807587e-06
-1.72346258787e-06
1.02641566459e-06
-2.05772378569e-06
6.91694637533e-07
-2.42835495638e-06
5.09810455754e-07
-2.77380718779e-06
1.69968486565e-07
-2.85046313377e-06
-4.87696401804e-07
-2.70725572243e-06
-1.2680407631e-06
-2.09910807715e-06
-2.04078775963e-06
-1.15403158213e-06
-2.81674243466e-06
-2.30950478756e-07
-1.92469236822e-06
-1.33749415704e-08
-9.21559695206e-07
2.26303705699e-07
-9.26117587069e-07
4.78443333512e-07
-9.46823806888e-07
7.12778505482e-07
-9.35391691908e-07
8.88588659547e-07
-8.81719834256e-07
9.73712518407e-07
-6.69258339322e-07
1.03361605626e-06
-3.73371897672e-07
1.08212502406e-06
-1.20242575317e-07
1.07238977684e-06
1.51588226706e-07
9.86315825477e-07
4.64738741933e-07
8.62342584741e-07
7.44119836425e-07
6.72161365292e-07
9.4788165382e-07
4.54394248374e-07
1.0785914316e-06
2.50980795182e-07
1.37002097311e-06
1.52328366495e-06
-1.01200667427e-07
6.68680533807e-07
-3.34838710245e-07
1.07345479755e-06
-3.24982164332e-07
1.18290579159e-06
-1.57687339388e-07
5.82086481933e-07
-3.53620921778e-07
5.92258406366e-07
-6.82252490175e-07
1.13538660304e-06
-7.8208024342e-07
1.23777920639e-06
-8.66632326577e-07
1.1950608872e-06
-7.66939293253e-07
8.31029221413e-07
-7.44572105781e-07
7.91171656379e-07
-6.40169731719e-07
3.63599050854e-07
-7.43468971824e-07
2.49902434635e-07
-8.30416580036e-07
2.27709488217e-07
-9.94409660931e-07
3.20567720772e-07
-1.29098933438e-06
6.21633357977e-07
-1.42482583764e-06
7.45739875762e-07
-1.36721680089e-06
5.0846259681e-07
-1.51494118815e-06
5.48918008117e-07
-1.76482925289e-06
8.29868991691e-07
-1.92697902784e-06
1.01367934361e-06
-2.02346986604e-06
1.02047592835e-06
-2.10245927643e-06
9.39910320818e-07
-2.19551380952e-06
8.71028594075e-07
-2.25623461068e-06
6.8721665446e-07
-2.16622459722e-06
3.65192513842e-07
-2.15377233381e-06
2.72818049502e-07
-2.11515066979e-06
1.22077385753e-07
-1.95117434176e-06
-7.84691668845e-08
-1.92944219077e-06
-1.39536959788e-07
-2.09389010671e-06
-1.80476019694e-07
-2.19281001591e-06
-3.48267213194e-07
-2.0190828105e-06
-5.79320911684e-07
-2.2929512712e-06
-2.28296590136e-07
-2.79546271633e-06
1.90869285755e-07
-3.23856984329e-06
4.99672987614e-07
-3.41287226137e-06
4.8945012781e-07
-3.32790902246e-06
3.09643338696e-07
-3.2449134137e-06
1.56221534585e-07
-3.22812646133e-06
3.00491630482e-08
-3.20676089388e-06
-1.17127786209e-07
-3.15184068572e-06
-2.68317024202e-07
-3.09158599046e-06
-3.98064051778e-07
-3.04859440459e-06
-5.36758850157e-07
-3.00396155235e-06
-6.82766898418e-07
-2.95549455715e-06
-9.12814472842e-07
-2.78134516548e-06
-1.50685850973e-06
-2.28290999167e-06
-2.59176358456e-06
-1.56784418896e-06
-3.45877717736e-06
-9.73024179554e-07
-3.43303495141e-06
-4.99012914235e-07
-2.72744718679e-06
-8.69590639907e-08
-1.91730388506e-06
2.52424456715e-07
-1.09765098895e-06
4.68715884596e-07
-2.56353580041e-07
4.15003380797e-07
7.30409747211e-07
-3.36787147786e-08
1.59703803501e-06
-8.53139958421e-07
2.07227301466e-06
-1.83488773549e-06
1.9879723022e-06
-2.69565199373e-06
1.53721569086e-06
-3.31304170429e-06
1.11813553379e-06
-3.79458398229e-06
6.45084800073e-07
-4.28325877367e-06
-3.91688589066e-09
-4.68307977668e-06
-8.72051656984e-07
-4.35078072868e-06
-2.37574311754e-06
-3.16539981473e-06
-4.00376492032e-06
-8.49558742016e-07
-4.24160469995e-06
-1.89283247933e-07
-1.58217966305e-06
1.75531669327e-07
-1.29122064703e-06
4.93347236073e-07
-1.26520604661e-06
7.53456269984e-07
-1.19610019391e-06
9.27298664724e-07
-1.05625746486e-06
1.04650131071e-06
-7.8918159744e-07
1.16806817973e-06
-4.95764445337e-07
1.25032836624e-06
-2.03347189394e-07
1.25175260228e-06
1.49232467626e-07
1.17217344786e-06
5.43408401878e-07
1.03469335186e-06
8.80706881625e-07
8.20977682528e-07
1.16078560663e-06
5.35322867917e-07
1.36300304545e-06
2.83538219727e-07
1.62156358109e-06
1.80569068434e-06
-1.47678807396e-07
8.16447534726e-07
-3.51317304433e-07
1.27734997152e-06
-2.48055589185e-07
1.08016071118e-06
-2.29521200534e-07
5.63508923025e-07
-5.12447556031e-07
8.75007163727e-07
-6.42617302616e-07
1.26542671605e-06
-7.26299920108e-07
1.32194140454e-06
-7.78849228405e-07
1.24842048265e-06
-7.37848678217e-07
7.90449924788e-07
-7.2142345133e-07
7.75469400418e-07
-6.95688803309e-07
3.37768947466e-07
-7.73336250556e-07
3.27181273716e-07
-8.79361018222e-07
3.32932828141e-07
-1.10546455887e-06
5.45445233519e-07
-1.4055962727e-06
9.2113399109e-07
-1.40274412117e-06
7.42518219196e-07
-1.40160705465e-06
5.06658136665e-07
-1.57287948073e-06
7.18977515601e-07
-1.7786618692e-06
1.03438382201e-06
-1.8936614445e-06
1.1276140304e-06
-1.95410320168e-06
1.07981395711e-06
-1.96119447819e-06
9.46813305435e-07
-1.95326766235e-06
8.63145588948e-07
-1.94002033107e-06
6.74119976385e-07
-1.95344939609e-06
3.7883933027e-07
-1.96035477408e-06
2.79425914342e-07
-2.06518670024e-06
2.26576294861e-07
-2.17645844113e-06
3.2172956707e-08
-2.24546840989e-06
-7.07584005499e-08
-2.24032258582e-06
-1.86392043625e-07
-2.33753422336e-06
-2.53476174751e-07
-2.615289618e-06
-3.06384138009e-07
-2.87860931564e-06
2.74262483484e-08
-3.29739449175e-06
5.99961461761e-07
-3.43876985038e-06
6.32732674609e-07
-3.38670908914e-06
4.29728794496e-07
-3.33195297113e-06
2.47792837644e-07
-3.30433335578e-06
1.20894798946e-07
-3.31835903402e-06
3.45309438726e-08
-3.35232986746e-06
-9.50741292687e-08
-3.35586911284e-06
-2.78505459298e-07
-3.30375529118e-06
-4.66055165967e-07
-3.23145713517e-06
-6.2667938034e-07
-3.15902833688e-06
-7.75353678728e-07
-3.07113273107e-06
-1.0245977621e-06
-2.79832258567e-06
-1.80720844683e-06
-2.19298140755e-06
-3.22646213857e-06
-1.53223172776e-06
-4.14749822947e-06
-1.03923421018e-06
-3.95274364261e-06
-6.63048634468e-07
-3.12908082728e-06
-3.15372352217e-07
-2.28738646912e-06
2.55031220922e-08
-1.46234864763e-06
3.40539536688e-07
-5.96694543552e-07
4.91682366662e-07
5.55048369435e-07
2.22082280219e-07
1.84584436483e-06
-5.56075284121e-07
2.83086152479e-06
-1.81258297213e-06
3.2252066295e-06
-3.22277983587e-06
2.93123611993e-06
-4.4048973276e-06
2.28825555364e-06
-5.20479474037e-06
1.43725774582e-06
-5.63737014758e-06
4.23266351715e-07
-5.78952086913e-06
-7.23528375574e-07
-6.29811378505e-06
-1.86971448408e-06
-6.64509188138e-06
-3.65889146098e-06
-4.47313657685e-06
-6.41425762711e-06
-8.19740501999e-07
-5.23541953349e-06
1.41987960446e-07
-2.25307620762e-06
5.2781034831e-07
-1.65119291889e-06
7.95898511702e-07
-1.46450200245e-06
9.92410870175e-07
-1.25325317718e-06
1.17903783853e-06
-9.76486366593e-07
1.36343305025e-06
-6.80911595233e-07
1.47740525354e-06
-3.18276233536e-07
1.48936459502e-06
1.36320878382e-07
1.41222091241e-06
6.19534478738e-07
1.24664672724e-06
1.04526728401e-06
9.95549841187e-07
1.41085319993e-06
6.48767386757e-07
1.7091873111e-06
3.12960528354e-07
1.95527317923e-06
2.1185516372e-06
-1.98809997543e-07
1.01482811956e-06
-3.73963381167e-07
1.4523507886e-06
-2.32749083378e-07
9.39002272579e-07
-3.0180056619e-07
6.32648314252e-07
-5.72243528577e-07
1.14553382763e-06
-5.55120620881e-07
1.24898027004e-06
-6.51342678131e-07
1.41841997028e-06
-6.00324242388e-07
1.19816010834e-06
-6.49024999164e-07
8.3946640099e-07
-5.89487033757e-07
7.15991458582e-07
-6.7725781301e-07
4.25420272459e-07
-7.83511406027e-07
4.32689402591e-07
-9.09655122154e-07
4.58343923146e-07
-1.14427474622e-06
7.79525070585e-07
-1.27368401849e-06
1.0499002313e-06
-1.20221083127e-06
6.70711382121e-07
-1.34534217483e-06
6.49056915173e-07
-1.55651890937e-06
9.29109424162e-07
-1.7363477577e-06
1.21314553849e-06
-1.86738498559e-06
1.25754055983e-06
-1.92806731179e-06
1.14051502904e-06
-1.99286388333e-06
1.01143193549e-06
-1.96905691493e-06
8.39660518616e-07
-1.91935862908e-06
6.24771534203e-07
-2.03451319049e-06
4.93879450309e-07
-2.00835472045e-06
2.53048482351e-07
-1.84532497398e-06
6.34789719612e-08
-1.83461088789e-06
2.12491225632e-08
-1.90184762509e-06
-3.94918712494e-09
-2.1602945373e-06
7.02855304119e-08
-2.29929427113e-06
-1.173648244e-07
-2.52784147255e-06
-8.31874398511e-08
-3.14417562381e-06
6.33652362355e-07
-3.43400362201e-06
8.81703269241e-07
-3.46262612775e-06
6.5427960036e-07
-3.51496506347e-06
4.75335069172e-07
-3.56502010501e-06
2.90225327482e-07
-3.58523279511e-06
1.32558263866e-07
-3.57921708883e-06
1.81293341936e-08
-3.58404090035e-06
-1.02734542354e-07
-3.57685057391e-06
-3.006920817e-07
-3.52392543124e-06
-5.36290426519e-07
-3.39317015805e-06
-7.76533339339e-07
-3.10643669719e-06
-1.08341616988e-06
-2.60366337137e-06
-1.55024766455e-06
-2.03837038457e-06
-2.39652311018e-06
-1.57247806475e-06
-3.71707260477e-06
-1.24566145754e-06
-4.49687496953e-06
-9.51013846612e-07
-4.26776229338e-06
-6.76884605249e-07
-3.42170244185e-06
-3.85008476851e-07
-2.6010832998e-06
-5.45327708287e-08
-1.81595323369e-06
3.16603117366e-07
-9.91367674271e-07
5.61695602288e-07
2.8544342978e-07
4.33887201731e-07
1.9536345544e-06
-2.52738347063e-07
3.49965125761e-06
-1.60380908367e-06
4.55944282472e-06
-3.41586849491e-06
4.72736362251e-06
-5.15580785266e-06
4.01560428828e-06
-6.46677837253e-06
2.73966936867e-06
-7.21344422285e-06
1.16475775615e-06
-7.49727769192e-06
-4.43587964687e-07
-7.46835738508e-06
-1.90128353042e-06
-7.48124989639e-06
-3.64782771327e-06
-8.09071085901e-06
-5.8054796435e-06
-5.05308679184e-06
-8.27359087982e-06
-6.63252977882e-07
-6.64258925651e-06
5.42936045107e-07
-2.85725652133e-06
8.1898075968e-07
-1.74073524257e-06
1.08424269548e-06
-1.51893868566e-06