/*--------------------------------*- C++ -*----------------------------------*\
| =========                 |                                                 |
| \\      /  F ield         | OpenFOAM: The Open Source CFD Toolbox           |
|  \\    /   O peration     | Version:  v1806                                 |
|   \\  /    A nd           | Web:      www.OpenFOAM.com                      |
|    \\/     M anipulation  |                                                 |
\*---------------------------------------------------------------------------*/
FoamFile
{
    version     2.0;
    format      ascii;
    class       surfaceScalarField;
    location    "298";
    object      phia;
}
// * * * * * * * * * * * * * * * * * * * * * * * * * * * * * * * * * * * * * //

dimensions      [0 3 -1 0 0 0 0];
oriented        oriented;


internalField   nonuniform List<scalar> 
12640
(
1.17817117755e-07
-1.19038175068e-07
2.28206455482e-07
-1.11331763786e-07
3.27945924051e-07
-1.00447163903e-07
4.13177701798e-07
-8.57982896349e-08
4.74183988575e-07
-6.1545469427e-08
5.08210969568e-07
-3.45984807001e-08
5.28756139178e-07
-2.10722613526e-08
5.68534132159e-07
-4.02541236724e-08
6.30224727165e-07
-6.21211196331e-08
6.8836174169e-07
-5.85084756868e-08
7.42007165138e-07
-5.393641794e-08
8.02045962958e-07
-6.02968854201e-08
8.57052092357e-07
-5.52344944168e-08
9.01655465524e-07
-4.48146742177e-08
9.4164749536e-07
-4.01902621614e-08
9.89740581389e-07
-4.83118485117e-08
1.04038741625e-06
-5.08538388234e-08
1.0819642176e-06
-4.17814415903e-08
1.11172729341e-06
-2.99161090193e-08
1.13625376135e-06
-2.46456465218e-08
1.17389042374e-06
-3.77312276185e-08
1.22849449727e-06
-5.46990436374e-08
1.2891379404e-06
-6.07243010058e-08
1.34987875378e-06
-6.08244692238e-08
1.40680721981e-06
-5.70007028756e-08
1.45911914267e-06
-5.23902712241e-08
1.51034244133e-06
-5.12911443807e-08
1.55869097085e-06
-4.8424704637e-08
1.60200049878e-06
-4.3370695485e-08
1.64136529395e-06
-3.94322825793e-08
1.68150233505e-06
-4.01856195802e-08
1.72069440813e-06
-3.92476922922e-08
1.75514089582e-06
-3.45026328824e-08
1.79163548391e-06
-3.65482226971e-08
1.82891618236e-06
-3.73019602467e-08
1.86598785957e-06
-3.71046187419e-08
1.90762133872e-06
-4.16388952398e-08
1.9487773177e-06
-4.11358029797e-08
1.98661026338e-06
-3.77852182947e-08
2.02778993578e-06
-4.11346923513e-08
2.08771049734e-06
-5.98638808595e-08
2.15019529781e-06
-6.24377801975e-08
2.18863673842e-06
-3.83860929135e-08
2.21211157269e-06
-2.34075094466e-08
2.229685739e-06
-1.74839323767e-08
2.24036488892e-06
-1.05786299799e-08
2.2442841834e-06
-3.78966810423e-09
2.23922344852e-06
5.20638611321e-09
2.22678647798e-06
1.26139146126e-08
2.2201288784e-06
6.84275856063e-09
2.23369302693e-06
-1.33243583025e-08
2.24627465529e-06
-1.23368559406e-08
2.20753671585e-06
3.90048047211e-08
2.13925467254e-06
6.85959139869e-08
2.04849212906e-06
9.11130099156e-08
1.91506831444e-06
1.33792614187e-07
1.79315973145e-06
1.22401134564e-07
1.70721877639e-06
8.65789649019e-08
1.60610125046e-06
1.01898081547e-07
1.48987007137e-06
1.17199786074e-07
1.40386273802e-06
8.719121533e-08
1.29694824321e-06
1.08167314155e-07
1.08450614427e-06
2.13696479783e-07
8.93692850129e-07
1.91590495378e-07
7.64686835298e-07
1.29522474577e-07
6.77051006679e-07
8.80041910345e-08
6.00570070099e-07
7.68540868953e-08
5.25802668589e-07
7.51895557463e-08
4.50113005662e-07
7.61888934509e-08
3.7248732305e-07
7.81743166532e-08
2.98010474639e-07
7.50662393982e-08
2.32253531811e-07
6.63448916009e-08
1.76922401223e-07
5.58904716591e-08
1.27581460805e-07
4.98912118115e-08
9.01007102181e-08
3.79974532173e-08
6.15297407426e-08
2.90898336198e-08
4.32820501762e-08
1.88448828846e-08
2.72871951218e-08
1.65758956227e-08
1.59548686115e-08
1.20511236822e-08
1.65832125101e-08
5.98314752563e-08
-1.7935864422e-07
1.3801781033e-07
-1.90150275108e-07
2.15051349796e-07
-1.77964168595e-07
2.97374334198e-07
-1.68538024729e-07
4.08387629787e-07
-1.73050895311e-07
4.97978871277e-07
-1.24703271582e-07
5.5067516528e-07
-7.43157024872e-08
5.98751201153e-07
-8.88197475385e-08
6.50218665585e-07
-1.14028957611e-07
7.0836127889e-07
-1.17001234403e-07
7.65608615333e-07
-1.11494557239e-07
8.12430473981e-07
-1.07365192779e-07
8.55670192773e-07
-9.87228106944e-08
8.99214430979e-07
-8.85922153491e-08
9.42846838145e-07
-8.40871434916e-08
9.93665393052e-07
-9.93591028112e-08
1.03791401175e-06
-9.5331426196e-08
1.05460560451e-06
-5.86199225646e-08
1.06743354484e-06
-4.28726137893e-08
1.09789148104e-06
-5.51874082034e-08
1.14882226011e-06
-8.87574275036e-08
1.22099490629e-06
-1.26938805138e-07
1.29341477201e-06
-1.33242737808e-07
1.34946614853e-06
-1.16940834766e-07
1.4021367199e-06
-1.09762060038e-07
1.46029638749e-06
-1.10608640893e-07
1.51252280037e-06
-1.03606844325e-07
1.55777190528e-06
-9.37278084558e-08
1.59994281279e-06
-8.56241066094e-08
1.63976662397e-06
-7.93013773413e-08
1.67569216431e-06
-7.61856745307e-08
1.70888412227e-06
-7.24937393165e-08
1.73730991209e-06
-6.29956640626e-08
1.76952575414e-06
-6.87965284633e-08
1.81277345572e-06
-8.06116821059e-08
1.8501140851e-06
-7.4439053527e-08
1.88830608037e-06
-7.98331586146e-08
1.93909999593e-06
-9.18896353391e-08
1.99627918872e-06
-9.49398986367e-08
2.0430539234e-06
-8.7846752729e-08
2.03468114429e-06
-5.14692157534e-08
1.99811689249e-06
-2.58215764917e-08
1.99939614629e-06
-3.9630364329e-08
2.0270735302e-06
-5.09996949412e-08
2.0614293243e-06
-5.17648489905e-08
2.09972010366e-06
-4.8744510779e-08
2.13460627252e-06
-3.85618642332e-08
2.16533860399e-06
-2.53600211217e-08
2.18747353633e-06
-9.36224580391e-09
2.17989168712e-06
1.46349711136e-08
2.12633002875e-06
4.04321231064e-08
2.06731266433e-06
4.69267955662e-08
2.09154475915e-06
1.50413526558e-08
2.11365880129e-06
4.68335295833e-08
2.07011916249e-06
1.35025955088e-07
2.04102336917e-06
1.63370750683e-07
2.0078089447e-06
1.56186335096e-07
1.93525912106e-06
1.59855984717e-07
1.85513769146e-06
1.82905764949e-07
1.75056527651e-06
2.22889972523e-07
1.53284338763e-06
3.06033918353e-07
1.3076455845e-06
3.34548242695e-07
1.09595777712e-06
4.26567315059e-07
9.04161136213e-07
3.84200598621e-07
7.56287570922e-07
2.77846534752e-07
6.40145600157e-07
2.0452238857e-07
5.62654944423e-07
1.54697245668e-07
5.00220264889e-07
1.38049011619e-07
4.32147580193e-07
1.44747101789e-07
3.56644612012e-07
1.54248915058e-07
2.80555301203e-07
1.5174707204e-07
2.12566322353e-07
1.34908187895e-07
1.59266090356e-07
1.09749990858e-07
1.20608365033e-07
8.91262595573e-08
8.884289951e-08
7.03423213106e-08
6.38464450689e-08
5.46863816722e-08
4.27248984505e-08
4.05694463405e-08
2.84109865521e-08
3.16003041542e-08
1.37927032586e-08
2.75381787102e-08
3.08467166083e-08
8.00272583621e-08
-2.60076805821e-07
1.14720037596e-07
-2.25358678626e-07
2.15362218697e-07
-2.79114085672e-07
3.37337318835e-07
-2.91045847948e-07
4.46186209506e-07
-2.82417430481e-07
4.97007379924e-07
-1.75938042005e-07
5.21524826098e-07
-9.92242464458e-08
5.74323469563e-07
-1.42045993785e-07
6.37047716787e-07
-1.77141779882e-07
6.99524171358e-07
-1.79809672397e-07
7.58211277109e-07
-1.70463762515e-07
8.076479925e-07
-1.57084933416e-07
8.50987681633e-07
-1.42354718987e-07
8.95019947854e-07
-1.32919652962e-07
9.26242352985e-07
-1.15582377233e-07
9.01265928072e-07
-7.46102301349e-08
8.47920825807e-07
-4.2122948758e-08
8.42936614082e-07
-5.37399657789e-08
8.96501824118e-07
-9.65172200752e-08
1.01283256845e-06
-1.71599549772e-07
1.14250195464e-06
-2.18514621289e-07
1.22342305216e-06
-2.07961508595e-07
1.2797930394e-06
-1.89696263039e-07
1.3451289642e-06
-1.82366928998e-07
1.40801484919e-06
-1.72723193811e-07
1.45905314191e-06
-1.61729918933e-07
1.50508388917e-06
-1.49704703119e-07
1.54938956312e-06
-1.38110165429e-07
1.59016783148e-06
-1.26463607509e-07
1.62942054028e-06
-1.18627615667e-07
1.66152253843e-06
-1.08355566417e-07
1.69060195881e-06
-1.0163329937e-07
1.72376064233e-06
-9.62233855132e-08
1.73891646176e-06
-8.40125499849e-08
1.76428848673e-06
-1.05990875456e-07
1.82283972868e-06
-1.32995781038e-07
1.86533649073e-06
-1.22309517022e-07
1.90608471508e-06
-1.32606223616e-07
1.97702947676e-06
-1.65837640856e-07
2.04748599104e-06
-1.58276351472e-07
2.10807477581e-06
-1.12020610653e-07
2.15802117544e-06
-7.57301408538e-08
2.18930837627e-06
-7.08511089301e-08
2.21160762906e-06
-7.32283390108e-08
2.2299877101e-06
-7.00458265156e-08
2.24300961299e-06
-6.16607896294e-08
2.25235699863e-06
-4.77727494585e-08
2.25728561629e-06
-3.01433996987e-08
2.256888588e-06
-8.79066093341e-09
2.25454502754e-06
1.71588516356e-08
2.25252372888e-06
4.26703138364e-08
2.23982377558e-06
5.98735676144e-08
2.17977820849e-06
7.53823664051e-08
2.10541432022e-06
1.21528764457e-07
2.07470981651e-06
1.6613809511e-07
2.05002885248e-06
1.88538157422e-07
1.99246306905e-06
2.14348719956e-07
1.9071507714e-06
2.45880649412e-07
1.80406804534e-06
2.86844287279e-07
1.68037897533e-06
3.47549846546e-07
1.55575424599e-06
4.31760088231e-07
1.36118205926e-06
5.30286253081e-07
1.10014863269e-06
6.88652255295e-07
8.44643053704e-07
6.40419939632e-07
6.88106588855e-07
4.3486748103e-07
6.11000727059e-07
2.81995839011e-07
5.3795551974e-07
2.28112615085e-07
4.61936839017e-07
2.14473282332e-07
3.86618060301e-07
2.20555745964e-07
3.10338042927e-07
2.31084331081e-07
2.40155839559e-07
2.2251811919e-07
1.84117233983e-07
1.915279182e-07
1.3948287121e-07
1.54969610472e-07
1.0444931146e-07
1.24723307219e-07
7.31805580186e-08
1.02148963365e-07
4.66095914819e-08
8.18026615179e-08
2.78429051195e-08
5.99253761051e-08
1.83435527501e-08
4.16143272974e-08
6.33328619109e-09
4.01516661333e-08
3.73969878061e-08
5.50682621199e-08
-3.1550217548e-07
6.80888203955e-08
-2.38730841003e-07
1.8965383912e-07
-4.01197530489e-07
2.8460530175e-07
-3.86538263259e-07
2.7644245645e-07
-2.74627552997e-07
2.26639688015e-07
-1.26294627827e-07
3.19562127155e-07
-1.92358778573e-07
4.85313530587e-07
-3.08125856213e-07
6.0080543146e-07
-2.92978883935e-07
6.78793543459e-07
-2.58109972895e-07
7.46235086604e-07
-2.38218387107e-07
8.02087670685e-07
-2.13264640636e-07
8.36730640277e-07
-1.77320983934e-07
8.19848549088e-07
-1.1633102933e-07
7.66216689947e-07
-6.21697344073e-08
7.43880953142e-07
-5.24104887013e-08
7.82462209983e-07
-8.08029742819e-08
8.79526956276e-07
-1.50888082066e-07
1.01423010984e-06
-2.31314629659e-07
1.11349918193e-06
-2.70977396051e-07
1.16695838598e-06
-2.72085703887e-07
1.22541705272e-06
-2.66519416848e-07
1.29003379581e-06
-2.54411647386e-07
1.34690052939e-06
-2.39321190292e-07
1.39847773889e-06
-2.24391130751e-07
1.44598009638e-06
-2.09308688266e-07
1.49276907098e-06
-1.96576553417e-07
1.53606105396e-06
-1.814675529e-07
1.57781555423e-06
-1.68293450351e-07
1.61210688231e-06
-1.52992754791e-07
1.64729499388e-06
-1.43617290937e-07
1.67008906153e-06
-1.24508861545e-07
1.68040355759e-06
-1.06589862414e-07
1.72714809115e-06
-1.30782308394e-07
1.76923431104e-06
-1.48091611307e-07
1.80960701888e-06
-1.73349755366e-07
1.89664906588e-06
-2.09320840068e-07
1.98070753341e-06
-2.16629850283e-07
2.02686785268e-06
-2.11976078756e-07
2.06116583282e-06
-1.92540803163e-07
2.10449870175e-06
-1.55313994494e-07
2.15051065342e-06
-1.21685172583e-07
2.18571285179e-06
-1.05994185966e-07
2.21107528463e-06
-9.85145793852e-08
2.23038848752e-06
-8.92757389585e-08
2.24462300625e-06
-7.57898113775e-08
2.25467187081e-06
-5.77038123083e-08
2.26027248752e-06
-3.56002936599e-08
2.26110705701e-06
-9.46786738821e-09
2.25780511627e-06
2.06446315053e-08
2.24836864858e-06
5.23093797183e-08
2.22495570054e-06
8.35227798849e-08
2.18140187461e-06
1.19211418243e-07
2.13677617997e-06
1.66494514547e-07
2.0925435751e-06
2.10773486216e-07
2.03329802148e-06
2.48269264577e-07
1.95533615447e-06
2.9288187448e-07
1.85439876384e-06
3.47486934774e-07
1.72781769937e-06
4.14210460226e-07
1.57801931153e-06
4.98223710034e-07
1.41056084158e-06
6.00140596732e-07
1.22093680222e-06
7.20880945542e-07
1.05843016354e-06
8.52110892385e-07
8.64461656139e-07
8.3513605731e-07
6.90900628119e-07
6.08941548641e-07
5.71518800981e-07
4.01754703329e-07
4.85020931479e-07
3.14958151288e-07
4.11366894583e-07
2.88534701978e-07
3.43090116684e-07
2.89318564587e-07
2.74387194644e-07
3.00366249898e-07
2.05480226388e-07
2.92022857094e-07
1.46286386785e-07
2.51317855818e-07
1.02340063668e-07
1.99430391451e-07
6.85877086217e-08
1.58926457714e-07
4.08152328203e-08
1.30363471383e-07
1.77626316378e-08
1.0527731842e-07
5.20461024662e-09
7.27755279427e-08
1.95752892015e-09
4.51379776226e-08
4.88065524554e-10
4.18450778238e-08
3.80188186267e-08
5.59235360841e-09
-3.21446209912e-07
6.19403723428e-08
-2.95365174752e-07
1.60720740261e-07
-5.00461998701e-07
2.18265291323e-07
-4.44542439876e-07
1.89392288682e-07
-2.45993105738e-07
2.37026384585e-07
-1.74070331075e-07
3.7210606454e-07
-3.27660884103e-07
4.7962887891e-07
-4.15967332566e-07
5.63811626043e-07
-3.77472869607e-07
6.4408982742e-07
-3.38718446175e-07
7.19419730184e-07
-3.13907368236e-07
7.48002997211e-07
-2.42168850889e-07
7.13753893161e-07
-1.43345570142e-07
6.83692195483e-07
-8.64636480223e-08
7.09968990242e-07
-8.85777124026e-08
7.84043114446e-07
-1.26593158349e-07
8.96716402298e-07
-1.93579913834e-07
1.00738486198e-06
-2.61665761232e-07
1.06803785288e-06
-2.92086899428e-07
1.10435947116e-06
-3.07419837145e-07
1.16005190131e-06
-3.27895339977e-07
1.22305097136e-06
-3.29630086882e-07
1.28196477271e-06
-3.13428923514e-07
1.33489628399e-06
-2.92355402614e-07
1.38398367131e-06
-2.73569145961e-07
1.43281611451e-06
-2.58235783067e-07
1.4749715635e-06
-2.38801194724e-07
1.51871445964e-06
-2.25290815467e-07
1.55408885768e-06
-2.03752454234e-07
1.58953544647e-06
-1.88526297109e-07
1.60935433172e-06
-1.63516473573e-07
1.64016061373e-06
-1.55370658183e-07
1.6967293704e-06
-1.63194610171e-07
1.72729448034e-06
-1.61353510051e-07
1.78214025074e-06
-2.02917905381e-07
1.86669639691e-06
-2.5788129442e-07
1.93259300732e-06
-2.7519420885e-07
1.98527151221e-06
-2.69291896742e-07
2.02688109947e-06
-2.53562427273e-07
2.06399071809e-06
-2.29620614729e-07
2.10546785202e-06
-1.96746841137e-07
2.14837788913e-06
-1.64543140708e-07
2.18439587593e-06
-1.4194793765e-07
2.21184909759e-06
-1.25897945301e-07
2.23271036057e-06
-1.10053922418e-07
2.24831052003e-06
-9.12966383464e-08
2.25930197504e-06
-6.85830083936e-08
2.26551549456e-06
-4.16857070334e-08
2.26640490215e-06
-1.02069601954e-08
2.26116221593e-06
2.60546741353e-08
2.24728715697e-06
6.63771038864e-08
2.22058216177e-06
1.1045303295e-07
2.18028145796e-06
1.59784271155e-07
2.13309754336e-06
2.14004722409e-07
2.07707765416e-06
2.67186382338e-07
2.0035630528e-06
3.22241425876e-07
1.90750786728e-06
3.89465845424e-07
1.78373346538e-06
4.71891480717e-07
1.6313868561e-06
5.67251358257e-07
1.45883742329e-06
6.71563568573e-07
1.27991493631e-06
7.79904854172e-07
1.11806687648e-06
8.83596864025e-07
1.01325759639e-06
9.57713309983e-07
8.43958757635e-07
1.00516959974e-06
6.98260613829e-07
7.55195270962e-07
5.70403058335e-07
5.30022438555e-07
4.56656636545e-07
4.29098537825e-07
3.63595780474e-07
3.82015739991e-07
2.87243861078e-07
3.66170900641e-07
2.15172275309e-07
3.72971690306e-07
1.45566699624e-07
3.62219817469e-07
9.50401260645e-08
3.02338416763e-07
6.02801411666e-08
2.34596001318e-07
2.95032885839e-08
1.9006425418e-07
4.599419557e-09
1.55575089422e-07
-9.53261858794e-09
1.19649706428e-07
-1.07092789861e-08
7.41216125619e-08
-1.04552210986e-08
4.49230047439e-08
-6.77831907958e-09
3.83405607001e-08
3.12518203132e-08
1.35893584952e-09
-3.22912900572e-07
8.24074799753e-08
-3.76682805131e-07
1.3119667557e-07
-5.49667246287e-07
1.54224721675e-07
-4.67892217246e-07
1.42466441055e-07
-2.34387267526e-07
2.69704900917e-07
-3.01486563043e-07
4.08198659042e-07
-4.66433101185e-07
4.68173279462e-07
-4.76222824212e-07
5.33429514484e-07
-4.43062413533e-07
5.93011980391e-07
-3.98658460016e-07
6.13429435273e-07
-3.34660358494e-07
5.66608920916e-07
-1.95594078162e-07
5.56412741398e-07
-1.33313897136e-07
6.04700747618e-07
-1.34870912772e-07
6.91985777948e-07
-1.7596418348e-07
8.20530458427e-07
-2.55241884054e-07
9.42258959142e-07
-3.15431031633e-07
9.9854164997e-07
-3.18085748935e-07
1.03041750674e-06
-3.24095224275e-07
1.09240901552e-06
-3.69542682776e-07
1.15746311409e-06
-3.93077352477e-07
1.21264993393e-06
-3.84938334404e-07
1.26605860959e-06
-3.66952134224e-07
1.32041174897e-06
-3.46810321519e-07
1.37065924718e-06
-3.23921148656e-07
1.4041529885e-06
-2.91814828292e-07
1.44873952027e-06
-2.83479013572e-07
1.48461630404e-06
-2.61254837286e-07
1.52156084302e-06
-2.4077868511e-07
1.53474336666e-06
-2.01789758235e-07
1.55765254618e-06
-1.86495545581e-07
1.59422681864e-06
-1.9198470059e-07
1.63021225785e-06
-1.99185505354e-07
1.72171790728e-06
-2.52842530497e-07
1.81928918516e-06
-3.00462632975e-07
1.88842055452e-06
-3.26994609339e-07
1.94040629732e-06
-3.27169644735e-07
1.98509265814e-06
-3.13968253861e-07
2.0258449068e-06
-2.94299894303e-07
2.06532748898e-06
-2.69074293821e-07
2.10650815281e-06
-2.37884321633e-07
2.1476908519e-06
-2.05669825346e-07
2.18391466795e-06
-1.78109613806e-07
2.21302533575e-06
-1.54939108317e-07
2.2356695089e-06
-1.32621859697e-07
2.25282870786e-06
-1.08368022121e-07
2.26496020769e-06
-8.06143385432e-08
2.27171000428e-06
-4.83185521163e-08
2.27215294832e-06
-1.05154694845e-08
2.26491810112e-06
3.34448735973e-08
2.24785920095e-06
8.36172401382e-08
2.21871578919e-06
1.39811965661e-07
2.17720817128e-06
2.01555448734e-07
2.12434459918e-06
2.67188871661e-07
2.05610072039e-06
3.35800317973e-07
1.96559938861e-06
4.13169752844e-07
1.84864019207e-06
5.06920194409e-07
1.70418653261e-06
6.16879537353e-07
1.53623276551e-06
7.35873335455e-07
1.35697882431e-06
8.51495438089e-07
1.18343464642e-06
9.54198459068e-07
1.03170579558e-06
1.03604965935e-06
9.3126641835e-07
1.05888474951e-06
7.99675273184e-07
1.13748789084e-06
6.40714972351e-07
9.14656512284e-07
5.27133990458e-07
6.43981200429e-07
4.13260055341e-07
5.43325315764e-07
3.09298783233e-07
4.86395151236e-07
2.21869919305e-07
4.54014823285e-07
1.4354660884e-07
4.5181249672e-07
8.26498843905e-08
4.23545556425e-07
4.67385973665e-08
3.3861619472e-07
1.3467762984e-08
2.68165017064e-07
-1.53004810683e-08
2.19065842328e-07
-3.27678647997e-08
1.73219329994e-07
-3.35958827159e-08
1.20544066167e-07
-2.91753693116e-08
6.96556551019e-08
-2.39076095311e-08
3.96746835181e-08
-1.30428234122e-08
2.74009657312e-08
1.82722819184e-08
2.91862437158e-08
-3.52319508165e-07
1.28759326786e-07
-4.76526236213e-07
1.68921772568e-07
-5.90229429745e-07
1.33125204361e-07
-4.32379517669e-07
1.74699067932e-07
-2.7611119155e-07
3.26250586531e-07
-4.53263635425e-07
4.02204591005e-07
-5.42650495022e-07
4.50164317686e-07
-5.24502499034e-07
4.87789076319e-07
-4.80996998839e-07
5.45580437697e-07
-4.56804807519e-07
5.20924699395e-07
-3.10287307345e-07
4.97436613658e-07
-1.72276386032e-07
5.41352097414e-07
-1.77353355573e-07
6.09067349071e-07
-2.02672385505e-07
7.27084392876e-07
-2.94081677259e-07
8.55213174705e-07
-3.83515326904e-07
9.10683979121e-07
-3.71054738006e-07
9.38212019045e-07
-3.45751168182e-07
1.00937184637e-06
-3.953919137e-07
1.08439200924e-06
-4.4470508629e-07
1.14329135262e-06
-4.52115046329e-07
1.19785497637e-06
-4.39632596741e-07
1.25180397335e-06
-4.21013461674e-07
1.29653624606e-06
-3.91658939496e-07
1.33158310997e-06
-3.59074616867e-07
1.36923349981e-06
-3.29558649996e-07
1.3984701923e-06
-3.12803494119e-07
1.43739002387e-06
-3.0025253535e-07
1.45974651049e-06
-2.63218496857e-07
1.47376097803e-06
-2.15875081146e-07
1.51762371127e-06
-2.30402773979e-07
1.5705254925e-06
-2.44909786237e-07
1.64832111858e-06
-2.76971382448e-07
1.73820621211e-06
-3.42704091519e-07
1.83141193009e-06
-3.93655074078e-07
1.89295603462e-06
-3.88534315476e-07
1.9396276089e-06
-3.73838796322e-07
1.98275140784e-06
-3.57086606117e-07
2.02484259682e-06
-3.36375531871e-07
2.06620980751e-06
-3.10413041261e-07
2.10768017703e-06
-2.79312289362e-07
2.14816871364e-06
-2.46106364417e-07
2.18460838278e-06
-2.14489476545e-07
2.21507797455e-06
-1.85344177075e-07
2.23950595126e-06
-1.56978636238e-07
2.25837635056e-06
-1.27159884913e-07
2.27176756204e-06
-9.39159013552e-08
2.27903202362e-06
-5.54805732722e-08
2.27899293734e-06
-1.03573494771e-08
2.2701371673e-06
4.24418509986e-08
2.25064761845e-06
1.03275500696e-07
2.21880922544e-06
1.71861932444e-07
2.17339275515e-06
2.4723118221e-07
2.11232993324e-06
3.28553043989e-07
2.03066221087e-06
4.17818025161e-07
1.9231033976e-06
5.21109213755e-07
1.78819155883e-06
6.42233187138e-07
1.62995233938e-06
7.75664937733e-07
1.45882291802e-06
9.07525443177e-07
1.29037933748e-06
1.02062251917e-06
1.14786851648e-06
1.09735256869e-06
1.04631650721e-06
1.1382598436e-06
9.26174492749e-07
1.17967153583e-06
8.17978552904e-07
1.24620053388e-06
6.04352806938e-07
1.12865021363e-06
4.71695865485e-07
7.76908761218e-07
3.63452769758e-07
6.51892595198e-07
2.52946925877e-07
5.97195478622e-07
1.51902423321e-07
5.55456663975e-07
7.32914987054e-08
5.30696751022e-07
2.84261824854e-08
4.68715698927e-07
-6.26491849296e-09
3.73526240802e-07
-4.1594211521e-08
3.03654454325e-07
-6.4671371963e-08
2.42233547223e-07
-7.06939424481e-08
1.79213537945e-07
-6.15437905747e-08
1.11307499456e-07
-5.19369236276e-08
5.99233958736e-08
-3.96525892885e-08
2.72044552386e-08
-2.09163324473e-08
8.77050650695e-09
-2.6263179696e-09
5.62774581372e-08
-4.08711272061e-07
1.46413498579e-07
-5.66949703189e-07
1.57762392008e-07
-6.01826039107e-07
9.49348081246e-08
-3.6970714882e-07
2.01106620807e-07
-3.82455972808e-07
3.28958671302e-07
-5.81366377648e-07
3.78951820754e-07
-5.92936792486e-07
4.30647624922e-07
-5.76490837741e-07
4.28629556815e-07
-4.79325364002e-07
4.43479806588e-07
-4.71936861126e-07
4.11689759796e-07
-2.78678803092e-07
4.72251372782e-07
-2.32964541896e-07
5.30143214171e-07
-2.35338172678e-07
6.27907524023e-07
-3.00540453313e-07
7.53913764246e-07
-4.20227950983e-07
8.19558070853e-07
-4.4932213822e-07
8.42996591616e-07
-3.94646716618e-07
9.14390811321e-07
-4.17291371811e-07
1.00028171751e-06
-4.81432515598e-07
1.06407764966e-06
-5.08653051613e-07
1.11805935614e-06
-5.06241691203e-07
1.17082511807e-06
-4.92521886796e-07
1.22863137342e-06
-4.78951114527e-07
1.2826236737e-06
-4.45775387339e-07
1.30865564348e-06
-3.85206014647e-07
1.35206100506e-06
-3.73067666061e-07
1.37949503999e-06
-3.40325307259e-07
1.38890941522e-06
-3.0974907362e-07
1.40830081372e-06
-2.8267347152e-07
1.48941078136e-06
-2.97037752181e-07
1.54138546618e-06
-2.82417395725e-07
1.57298420121e-06
-2.765065394e-07
1.66386544998e-06
-3.67839023275e-07
1.77133039001e-06
-4.50156586889e-07
1.83513242186e-06
-4.57454261611e-07
1.88739769334e-06
-4.40802478363e-07
1.9347768733e-06
-4.2122006616e-07
1.97969198935e-06
-4.01997885169e-07
2.02363083001e-06
-3.80300347428e-07
2.06673776587e-06
-3.53492472031e-07
2.10893043661e-06
-3.21464523118e-07
2.14941895618e-06
-2.86544179647e-07
2.18637748387e-06
-2.51391721491e-07
2.21823440299e-06
-2.17140702052e-07
2.24450251146e-06
-1.8318268758e-07
2.26519536308e-06
-1.47782878961e-07
2.2799762964e-06
-1.0861943538e-07
2.28790529428e-06
-6.33207837821e-08
2.28766266949e-06
-1.00090941192e-08
2.27771365755e-06
5.25176511558e-08
2.25630232425e-06
1.24852539764e-07
2.22145043186e-06
2.06914488548e-07
2.17068648648e-06
2.98243786224e-07
2.10022392063e-06
3.99304185325e-07
2.00522450086e-06
5.13117965457e-07
1.88297958691e-06
6.43672010065e-07
1.73609594347e-06
7.89548063314e-07
1.57233278131e-06
9.39799560616e-07
1.4029659102e-06
1.07755258145e-06
1.24478557712e-06
1.17931375152e-06
1.12026777504e-06
1.22246882414e-06
1.02458717994e-06
1.23446950862e-06
9.41971237088e-07
1.26277374528e-06
8.88044261309e-07
1.30055482716e-06
7.00564007196e-07
1.31653542241e-06
4.4486498732e-07
1.03291381081e-06
2.97872277916e-07
7.99124258551e-07
1.78028151546e-07
7.17379689938e-07
7.62684574635e-08
6.57451210519e-07
1.03654678831e-08
5.96945182521e-07
-2.97361429311e-08
5.09039900542e-07
-7.22087835176e-08
4.16202273329e-07
-1.05284807647e-07
3.36880153905e-07
-1.19272627701e-07
2.56281468139e-07
-1.13551254234e-07
1.73483064518e-07
-9.91922646509e-08
9.68165990185e-08
-8.10405373581e-08
4.15906172038e-08
-5.84379758791e-08
4.64846843095e-09
-3.05732460472e-08
-1.91517152339e-08
-3.31332252919e-08
7.55327811087e-08
-4.84498651186e-07
1.42702776504e-07
-6.34403037177e-07
1.2141243507e-07
-5.80809593983e-07
1.24115039226e-07
-3.72560446229e-07
2.50617537521e-07
-5.09162908161e-07
3.03120340592e-07
-6.34136040901e-07
3.48950576459e-07
-6.39069326785e-07
3.95260280816e-07
-6.23102569765e-07
4.00789804432e-07
-4.85106433536e-07
4.10910860746e-07
-4.82335283121e-07
4.17820866172e-07
-2.8572122637e-07
4.69538280639e-07
-2.84792202286e-07
5.37144159151e-07
-3.03031769939e-07
6.51769781575e-07
-4.15278194879e-07
7.59702415481e-07
-5.28344189747e-07
7.89845956284e-07
-4.79652011593e-07
8.26179577064e-07
-4.31135614923e-07
9.02552458852e-07
-4.93814806859e-07
9.78073193178e-07
-5.5711151865e-07
1.03912237259e-06
-5.69855365067e-07
1.09224623814e-06
-5.59498232819e-07
1.13655406012e-06
-5.36974948702e-07
1.17700851463e-06
-5.19552728502e-07
1.21812987799e-06
-4.87017328409e-07
1.25107848548e-06
-4.18273940478e-07
1.28386521417e-06
-4.05952546411e-07
1.33039753379e-06
-3.86937456221e-07
1.38283849832e-06
-3.6226677001e-07
1.43397315704e-06
-3.33876902546e-07
1.47327862884e-06
-3.36388802094e-07
1.52797971748e-06
-3.37123231205e-07
1.63410076467e-06
-3.82614087693e-07
1.71711973621e-06
-4.50839366065e-07
1.77640961538e-06
-5.09439942613e-07
1.82957187807e-06
-5.10624073302e-07
1.88031485713e-06
-4.91555272306e-07
1.92925448694e-06
-4.70164425418e-07
1.97617363871e-06
-4.48912835258e-07
2.02180615591e-06
-4.25917157305e-07
2.06653635118e-06
-3.98194779263e-07
2.10998052165e-06
-3.6486970636e-07
2.15123933993e-06
-3.27756543308e-07
2.18913379162e-06
-2.89235068308e-07
2.22257725702e-06
-2.50530871532e-07
2.2508673654e-06
-2.11417006098e-07
2.27353096716e-06
-1.70387680163e-07
2.28989747425e-06
-1.24920458038e-07
2.29885903949e-06
-7.22064613603e-08
2.29900197699e-06
-1.0061143027e-08
2.28873221786e-06
6.2911514834e-08
2.26610046647e-06
1.47628756217e-07
2.22851149885e-06
2.44707855882e-07
2.17225533449e-06
3.5472811851e-07
2.09263320389e-06
4.79168032053e-07
1.98579520857e-06
6.2021563719e-07
1.85209358969e-06
7.77684189407e-07
1.6973369861e-06
9.44544916873e-07
1.53081308151e-06
1.1069365291e-06
1.36245197996e-06
1.24625616143e-06
1.21184295298e-06
1.33054147668e-06
1.0980599282e-06
1.33668248335e-06
1.00960602854e-06
1.32336948802e-06
9.37088930122e-07
1.33569579149e-06
8.79274952772e-07
1.35882462057e-06
8.06801957262e-07
1.38940702262e-06
5.29705156695e-07
1.31039344992e-06
2.3461353242e-07
1.0946203907e-06
1.02021437819e-07
8.50264875441e-07
8.28281102534e-09
7.51631864243e-07
-5.27247535061e-08
6.58261638694e-07
-1.03020096717e-07
5.59708719104e-07
-1.52290791214e-07
4.65799945265e-07
-1.78005563263e-07
3.6286875609e-07
-1.80004529524e-07
2.58460459399e-07
-1.6602324085e-07
1.59553318629e-07
-1.45009574149e-07
7.58010983653e-08
-1.14957024587e-07
1.1596259367e-08
-7.88226083398e-08
-3.16324505307e-08
-3.93224399961e-08
-5.84320535707e-08
-7.22909143804e-08
8.97197005067e-08
-5.74346022013e-07
1.48470863276e-07
-6.93386220131e-07
1.08047913942e-07
-5.40575024354e-07
1.52333945041e-07
-4.17031306559e-07
2.61859011841e-07
-6.18946194291e-07
2.73494213878e-07
-6.46065911098e-07
3.12933456746e-07
-6.78777795519e-07
3.24092528304e-07
-6.34542988585e-07
3.60658304514e-07
-5.21882023097e-07
3.45222320251e-07
-4.67068985395e-07
3.95768438932e-07
-3.3639052363e-07
4.60352826587e-07
-3.49458466537e-07
5.36048539824e-07
-3.78835611836e-07
6.42092934793e-07
-5.21486640095e-07
7.03593416939e-07
-5.90026747623e-07
7.17244283776e-07
-4.93471345053e-07
7.88053074526e-07
-5.02102759302e-07
8.73066672709e-07
-5.78989820904e-07
9.43931726434e-07
-6.28137789525e-07
1.00816282279e-06
-6.34235579321e-07
1.06681834139e-06
-6.18319379648e-07
1.11966087871e-06
-5.89972555231e-07
1.15021501092e-06
-5.50246417939e-07
1.1766868929e-06
-5.13625809078e-07
1.23133082432e-06
-4.73024103554e-07
1.25784735012e-06
-4.32560486456e-07
1.27074743405e-06
-3.99934957713e-07
1.29245378176e-06
-3.84051611444e-07
1.36130026362e-06
-4.02773680952e-07
1.4453675024e-06
-4.20482136464e-07
1.52946815219e-06
-4.21218862246e-07
1.60904290619e-06
-4.6216199322e-07
1.70946662126e-06
-5.51241662377e-07
1.77195646518e-06
-5.71934894424e-07
1.82252827758e-06
-5.61209424214e-07
1.87328266557e-06
-5.42320227374e-07
1.92375526391e-06
-5.20640265872e-07
1.97251097295e-06
-4.97662890988e-07
2.01964440304e-06
-4.7303467392e-07
2.06577650683e-06
-4.44300592817e-07
2.11065060056e-06
-4.09708412672e-07
2.1532797671e-06
-3.70343690563e-07
2.19265260318e-06
-3.28562741161e-07
2.2279786047e-06
-2.85809898879e-07
2.25856860745e-06
-2.41959272301e-07
2.28359704602e-06
-1.95365910882e-07
2.30198990055e-06
-1.43258727284e-07
2.3125448625e-06
-8.26975720731e-08
2.31395218515e-06
-1.13795883286e-08
2.30455834768e-06
7.24029279716e-08
2.28208793342e-06
1.70271704052e-07
2.24304339943e-06
2.83909413889e-07
2.18248381766e-06
4.15505684135e-07
2.09497239932e-06
5.66876594646e-07
1.97792227503e-06
7.37474913126e-07
1.83475742634e-06
9.21014194938e-07
1.67357462676e-06
1.10619636443e-06
1.50106277038e-06
1.27964429294e-06
1.331766669e-06
1.41619832287e-06
1.19305764214e-06
1.46954861211e-06
1.0934398589e-06
1.43660415158e-06
1.00081685706e-06
1.41629059048e-06
9.13459705044e-07
1.42344432986e-06
8.46138084012e-07
1.42655148048e-06
8.02195934463e-07
1.4337958795e-06
6.64707319783e-07
1.44839845655e-06
3.36044194306e-07
1.42365714694e-06
3.91591374014e-08
1.14762460015e-06
-5.95077647824e-08
8.50563119727e-07
-1.25640478787e-07
7.24799822018e-07
-1.93490664535e-07
6.27895614879e-07
-2.48129800467e-07
5.20814456289e-07
-2.60214124689e-07
3.75254975205e-07
-2.48213299053e-07
2.46676980511e-07
-2.27310396668e-07
1.38737413222e-07
-1.95193020677e-07
4.37292730213e-08
-1.47358188565e-07
-3.64089132422e-08
-9.54602321961e-08
-8.32634041068e-08
-4.50984548404e-08
-1.08659960806e-07
-1.18183031161e-07
8.38930023268e-08
-6.58532449928e-07
1.28475563184e-07
-7.38247947241e-07
1.09408821998e-07