/*--------------------------------*- C++ -*----------------------------------*\
| =========                 |                                                 |
| \\      /  F ield         | OpenFOAM: The Open Source CFD Toolbox           |
|  \\    /   O peration     | Version:  v1806                                 |
|   \\  /    A nd           | Web:      www.OpenFOAM.com                      |
|    \\/     M anipulation  |                                                 |
\*---------------------------------------------------------------------------*/
FoamFile
{
    version     2.0;
    format      ascii;
    class       volScalarField;
    location    "904";
    object      alpha;
}
// * * * * * * * * * * * * * * * * * * * * * * * * * * * * * * * * * * * * * //

dimensions      [0 0 -1 0 0 0 0];


internalField   nonuniform List<scalar> 
6400
(
0.910708279182
1.48480506371
2.374913365
3.01553329002
3.62579543976
4.22811949315
4.95387938028
5.76027769718
6.3138850743
7.11798948565
8.45313288224
9.46932244374
10.3484630421
11.3095259943
12.450500739
13.6556002949
14.778584181
15.8422711593
16.7512206607
17.3596663276
17.7851993515
18.3780967426
19.3256975215
20.5881791951
21.9464350252
23.2002393163
24.2920396453
25.3233470613
26.3873501943
27.4993328154
28.6039507941
29.5264813916
30.1905145695
30.7021743412
31.1123643482
31.4409042014
31.9283337449
32.5927234818
32.9815183402
33.1759470402
33.6971173034
34.6554923072
35.5944667771
36.1681774999
36.4060747513
36.4025018816
36.2211220678
35.9002444568
35.4526218633
34.8965658708
34.1626010302
33.0620316056
31.5626198656
29.7542169299
28.0215175232
26.3629568776
24.232985567
21.4614582569
18.5709168946
15.9811410565
13.3693458813
10.6555549891
8.21539448008
7.54746080421
9.95063471344
14.1816549273
16.8082859052
16.2530622551
14.0532948886
12.3045421214
11.3806210891
11.6188956711
12.2517291841
12.1994969878
14.408673333
13.8998722634
15.8812076367
9.77426685031
12.8503945294
4.79763272982
3.18258265197
2.58200306943
3.23973789115
4.53365876702
4.57964353769
4.62833232582
4.96022985441
5.51166706023
6.27423181854
7.23108565526
8.36419868379
9.49918091788
10.5224486494
11.5099586037
12.5258933188
13.6776847193
14.8934472556
16.0523353238
17.1856193113
17.6398199419
17.9057623269
18.4886142642
19.4279479602
20.684205976
22.138866294
23.3483591399
24.4165334441
25.4783682552
26.553457479
27.6385978764
28.7206463045
29.712185888
30.3697164464
30.8730127058
31.3078020566
31.5754883032
32.0975596155
32.7868507881
33.1470414188
33.2424179134
33.7414700576
35.0712585946
36.2193648846
36.7189476619
36.9106947779
36.8558758767
36.6113932967
36.2470555328
35.6866673177
35.0074843249
34.3204741993
33.5866108188
32.2216345484
29.9759839046
28.3212962685
26.5070063187
23.9959033369
21.2807658548
18.5530607512
15.8319178541
13.2313964042
10.9112302379
8.56672301924
8.04000799492
10.2757862341
15.2334798086
18.5769330972
17.0591387315
14.6955618647
12.6375237125
11.8958143593
12.3528371048
13.5567737831
13.0193304137
12.9541968546
12.5092055802
11.3898528239
9.60709597186
8.11507647883
4.1942867689
3.34010957426
2.98282523543
3.51506590148
3.89788153908
4.56477378149
5.08754169364
5.1380729777
5.39660376776
6.16603338214
7.20073289437
8.34639871474
9.50037974399
10.5650797857
11.5514857318
12.4237806851
13.4803626235
15.9952102547
18.0136102464
18.6378381632
18.4027813954
17.7122065082
18.2133545562
19.5264639208
20.8274085353
22.0837524409
23.34258376
24.4968210138
25.5605558643
26.6166372391
27.6942717607
28.7501921438
29.8132592791
30.4604246429
30.7841682363
31.4518051707
31.7406329257
32.0372134018
32.8605387584
33.2776789863
33.4425169543
33.9562235353
34.8868262094
35.7956817616
36.3687357628
36.6315030115
36.6674284887
36.5189168432
36.205379408
35.7301383018
35.1113479344
34.3439428066
33.3156832551
31.905732916
30.3175424947
28.635468319
26.4549712559
23.9241708119
21.2573443719
18.5468019442
15.8716125268
13.3182459676
10.8654731157
9.09626567356
9.34015775943
12.5453757472
16.271796194
18.0399251139
17.8717192372
16.1239649568
14.364446703
13.6464137162
13.5580494596
12.90160508
12.3461675951
12.4101488694
12.1666051846
11.2708550627
9.69181352714
7.25532066601
7.47322317679
3.46443541768
5.62029738914
3.9338544234
4.12594740663
4.87562153725
11.9948997733
10.4428094407
5.87525602906
6.11636042437
7.183338943
8.36205552409
9.53835277989
10.5775243591
11.5587301685
13.2293589998
15.2931069788
17.0504283087
17.7399552779
17.2130934104
16.9496899508
17.5651825512
18.4360051346
19.528935062
20.8178170619
22.151788849
23.4349045424
24.6112396523
25.6599223621
26.7262117949
27.7500616554
28.8948934427
29.8085616734
30.6621489194
30.9599749201
31.1176292034
31.7969476571
32.1798417661
32.5864348654
33.1408645386
33.6495830385
34.2536068514
35.0565051177
35.8543530345
36.4233516067
36.7231656229
36.7937440276
36.6713438156
36.3770759462
35.9196326934
35.3037051791
34.5086895686
33.4688106722
32.1389324641
30.5701002975
28.7323848332
26.509982135
23.9707946217
21.2917676248
18.5926303296
15.9692607352
13.536394983
11.5290350533
10.5605490594
10.9355887875
12.580872813
16.7736504526
19.7410165552
19.6450369729
17.8244091813
15.3658032473
13.6893980842
12.8635918207
13.0547181307
14.5557587162
14.5592447084
13.2977592118
13.2291586662
16.592128325
12.9555466619
10.9414677257
5.8989030113
7.73281286775
4.83189385419
5.15568860975
6.85432176415
11.897483134
8.58273366404
6.44829271058
6.64559543965
7.39461071276
8.4928796483
9.67841553351
11.1414941077
13.3146470479
14.4326912326
15.0419962491
15.4279268974
15.7027310759
16.1896934277
16.9823793647
17.6780023418
18.4933894775
19.6145245221
20.9024197465
22.2433222392
23.5480669472
24.7053479386
25.8453131337
26.8177609907
27.9648264099
28.9305602823
30.2532415758
30.6080223454
30.688882902
31.1653368995
31.4777068998
32.0232109147
32.6667922522
33.2953868746
33.8870931537
34.5231995686
35.2569326834
35.9782718705
36.5330310274
36.8579956906
36.9602057436
36.864765418
36.5926124337
36.1543663441
35.5482827774
34.750967487
33.7190589523
32.4218575975
30.8482908884
28.9414739139
26.6580242
24.0982134088
21.4317515076
18.7977046983
16.334369638
14.2391967998
12.8361755709
12.4482816329
12.4421952112
13.2821873355
16.6488328702
19.9777471116
21.0160840537
19.6731809359
16.8028846992
14.2257421397
13.837426626
16.1310872451
17.0316936462
16.0302851123
15.1585179794
17.8971910176
20.9614293596
16.2095625003
15.3143049767
10.1673584108
9.36421101984
6.02786675438
6.49735618697
12.1919634367
11.7090858153
7.23626712724
7.09787919908
7.30229573128
7.75062924433
8.70954217736
11.2242896207
14.29165163
14.8730522031
14.7593615078
14.2793976418
14.4007670899
15.122035277
16.2378921416
16.9289444175
17.5935366474
18.558047026
19.7381519892
21.0446831108
22.3262437924
23.6346210451
24.9756455297
25.934971771
27.1957852827
28.0142187076
29.5155803552
30.0900925911
31.0320420106
30.826829083
30.7560642955
31.2945236175
32.0570282074
32.8096226751
33.4974143045
34.1395017848
34.7960563601
35.4940945177
36.1661029916
36.7050256249
37.0452139894
37.173988817
37.1050559306
36.8575810695
36.4429353029
35.8567844446
35.0757379566
34.0630401107
32.7806348254
31.1858793595
29.2283955052
26.9185873612
24.3830822949
21.7968078617
19.3244835636
17.1511925992
15.5064516557
14.6700059263
14.6407221568
13.8934628084
15.3152342401
18.7983284522
21.5035160691
22.4212667762
21.2727878413
17.7863250265
15.4728363773
17.1857489549
19.3609247048
18.8257176956
17.8520882403
17.9556642351
22.6329443825
24.2610017795
19.1820759948
18.9848074758
12.3209680137
9.36799726411
7.3172398265
6.86169582101
12.1925164535
8.86258120717
7.58555204364
7.73809697904
7.92041669074
8.66101641517
9.26711804068
13.8541230492
14.6923094885
14.8882479359
13.9237247083
13.4351068506
14.0642070262
15.4784166607
16.1590749222
16.6680281167
17.5915000739
18.6499189658
19.8335749586
21.1357639195
22.5528208795
23.9109868207
24.9888183964
26.520745015
27.2879797011
28.8629655591
29.32489131
30.5244060212
30.6315963155
30.6442731373
30.6538023036
31.2864975654
32.1596154773
32.9882151597
33.7226932512
34.4039682186
35.0814967357
35.7659123681
36.41021367
36.937453006
37.2878719707
37.4388765337
37.3963423577
37.1775146015
36.793612289
36.2385555688
35.4872259825
34.5000880815
33.22834879
31.6202493564
29.6487418839
27.3686769634
24.9306319556
22.5171920557
20.2971729057
18.4426694635
17.1592350789
16.515335641
16.0580723981
15.9549566388
17.3957025491
21.6770642299
23.1826409064
22.9991455747
21.637628896
19.2050428483
18.7481200174
21.1430292282
21.4811111983
20.6182705317
20.0265530807
22.0639297373
24.8993013135
26.4306133069
21.7808976038
20.6320162967
12.1151034369
9.18237617973
8.51262117875
12.4492535736
12.3802332981
8.14538550212
8.28894375871
8.47868593948
8.58004758377
9.20356923759
13.5430869544
14.5377161673
14.7777490323
14.5085185775
12.9607358537
13.1053408124
14.6988736711
15.5582020038
15.8388531725
16.5366063348
17.6034682551
18.7790873717
19.9989358895
21.3446772698
22.6283590895
24.1728079669
25.037347456
26.5275805187
28.2029311318
28.9964459501
29.0840383611
30.1059342251
30.6444131324
30.2907129019
30.6728410336
31.4379724154
32.3223524317
33.1826258431
33.9625688333
34.6842025735
35.3863920307
36.0732038779
36.7067578512
37.2286142663
37.5877374338
37.7589672606
37.7443145985
37.5595188554
37.2148257971
36.7020101585
35.9925503369
35.0410300598
33.7922119092
32.201403658
30.2746157846
28.1050023198
25.8528363804
23.671511697
21.6756784064
20.0114562247
18.8730253069
18.2736919671
18.0534845545
18.2599840035
18.2474567496
22.4953824921
25.3496106104
24.7738309213
23.8040268063
22.5775845052
23.0800677465
24.1866025234
23.3554663894
22.6071415005
22.8033168551
25.2331385006
25.9929786148
26.6633970108
23.7641894952
21.6052396869
11.5002346147
9.24181317686
9.20500645049
13.4723823488
11.5369304395
8.8865876213
9.0553114135
9.37901332398
10.4331951351
9.37175043519
14.3076614931
15.0963810245
14.8458621733
13.4595180952
12.7148037551
13.227975116
14.7351814042
15.3114157009
15.730684461
16.5321084909
17.5835534119
18.8159207119
20.1205457932
21.8058097009
23.2450517218
24.1360384012
26.0719962908
26.4644596035
28.3166858175
28.6284024901
29.8956287623
29.6188322256
29.8139140036
30.2370944464
30.8469584002
31.6410696552
32.5186988129
33.3955286133
34.2176195567
34.9839948873
35.7170202504
36.4172726743
37.053345737
37.5775876381
37.9468404076
38.1389252364
38.1557998458
38.0118339406
37.7155075695
37.2566014549
36.6033116568
35.7058372225
34.5101901279
32.9910997018
31.1910354909
29.2257306556
27.2217758933
25.2317446549
23.3049079563
21.7023023408
20.750044323
20.4700951713
20.5457341131
20.5891945479
20.3829925546
20.9327114055
26.047281084
27.1093645611
26.5628798782
26.6825348339
27.2682993736
26.5660766514
25.3243367361
24.995476001
25.9851658714
27.2897117315
27.2644050734
26.7569496218
25.7873245537
24.4357937399
11.1103839381
9.78473384184
10.3522107327
13.5908812373
9.86659678658
9.92029686473
9.82637539368
10.121378804
12.9494905906
11.8040543535
15.1402476479
15.4051949754
14.9735325558
12.928316424
12.7899506482
14.3223513882
14.9266122502
15.0900330743
15.6805245375
16.642541264
17.683122068
18.8595735037
20.0238465489
21.9046607075
24.0694900385
24.0775132591
25.9960105593
27.5034358658
28.503188268
29.4511929982
29.3845019069
29.7594147289
29.5950500806
30.1743395164
31.0113223306
31.8665057404
32.7435188674
33.6297867079
34.4883250409
35.3033033724
36.076658287
36.8010705182
37.4498687772
37.9842958239
38.3683979727
38.5847319875
38.638292787
38.5432262601
38.3055767734
37.9136627369
37.3351504598
36.5210751527
35.4279522348
34.0585836376
32.4858379298
30.8087915234
29.0350079441
27.0585845194
25.0638214366
23.693160879
23.2679866393
23.4547139208
23.656227766
23.4912502031
22.9277394536
21.4544518044
20.5478380172
29.2134435365
31.4183146808
31.7387386733
30.9612133039
29.0269664487
27.7219001723
27.7752305789
28.9199200442
29.3877245927
29.3615523022
29.2680870456
29.738146655
30.0002751326
11.2395122605
10.706686707
13.6331441089
13.8697557765
10.1326601943
10.7217046517
10.5981112167
11.023076246
12.6176680225
15.1457532989
16.0325339767
15.7408397439
15.2935153449
13.0607888129
12.9625828083
14.7796280044
15.0465835237
15.0769861791
15.6822670658
16.7352552012
17.9745614772
19.1831708551
20.1519974732
21.5200908728
24.1910817255
25.5736326133
25.709404603
27.5648533914
27.6547203266
29.43317237
30.139160524
29.7432204387
29.5886307309
30.2763942284
31.1992240542
32.100013218
32.991414866
33.8896703211
34.7774455439
35.6411867424
36.4653128321
37.2261358335
37.8977163474
38.450228294
38.8558722383
39.1034059982
39.2013808888
39.1638443495
38.9954273272
38.6853731914
38.2054562595
37.515727216
36.5939046099
35.4744677318
34.2349174051
32.8741812623
31.1823228039
29.0443089927
27.1687370103
26.5411204989
27.0406535942
27.6606594425
27.8697122898
27.4495554987
26.3975670589
24.5021299016
21.9425820249
21.6786241295
33.1836344753
37.5392372731
35.5205272255
32.3337247345
30.8459531634
30.9067536177
31.5862604953
32.1254368381
32.9028875546
33.8254804191
34.6335353295
35.4252835577
11.719318672
11.6393034762
15.3116124293
14.6965760924
12.9701154052
11.9890621903
11.604206341
12.4559454387
12.2440423114
16.1252137482
16.7564367115
16.1606871806
15.4979998352
13.7744281601
13.7128629418
15.2068688259
15.101515986
15.1700689267
15.7727317702
16.7432735648
18.0684928971
19.6028781956
21.351177808
21.5826744038
23.6839322575
25.8772456363
25.6301706341
27.7342816766
28.9017836677
28.8125971408
29.4390224402
29.3396871212
29.8409275901
30.5678437684
31.4398860968
32.352511671
33.2647997639
34.181507488
35.0916971153
35.9957932319
36.8786904248
37.6935804756
38.3998549127
38.9778800495
39.4137155991
39.702949341
39.8558286613
39.8853069176
39.7963297966
39.5832769491
39.2290496263
38.7152821342
38.0529062843
37.2963605313
36.4599170328
35.3224288916
33.5781728343
31.4939192404
30.1231732769
31.000363933
33.3837213417
34.1831341354
34.3568342899
33.7846893926
32.4922006965
30.131181928
26.6411254991
21.7859377698
28.5947030504
38.6860269201
40.6900671441
36.8815614424
35.1717296869
34.9142914475
35.0841398725
35.6377182113
37.5336586647
39.0776551821
39.3028750394
39.7041079514
12.3999696185
12.3357500302
15.1362273471
15.2707130206
15.3294741193
13.204884382
12.7354229563
15.197226853
12.7293921961
16.9937947291
17.310089863
16.5859262529
15.6904752974
14.4597168293
16.0686274433
16.2285809648
15.3446802706
15.4028827828
15.9990990646
16.8434896858
17.9875827403
19.5735681724
22.4703101616
23.4980324656
23.2078275349
25.8658283311
27.0495373669
27.3213743986
28.8231922903
29.611019285
29.685732605
29.3786058349
30.0225795989
30.8669413677
31.7331343867
32.6378034386
33.5580994628
34.5033697042
35.4500838849
36.3842205016
37.3140514746
38.1936049555
38.955220748
39.5718804009
40.0478776379
40.3920912511
40.6137388346
40.7207019403
40.7193006347
40.6150821909
40.4136980299
40.1357220345
39.8315575418
39.5302402702
39.0606077561
38.0024722497
36.7469045845
35.7538535494
34.3793294038
36.976303999
36.3967882848
34.5965300765
32.0616065817
29.1790421854
24.961417664
19.8534402008
16.4059823102
3.15734863985
0.13520204687
28.1319459295
37.1210533789
36.5616560833
32.1535302974
31.7166023566
33.7768635794
36.4408603018
41.6408917276
44.5189831059
44.890990105
45.2633999493
13.1296636237
13.0809288695
12.731734352
15.6526258655
15.9277759702
14.0544565698
13.7425491384
16.2448225227
13.4670514881
17.9048971722
17.8165645464
17.0226639127
15.9745265149
14.8270523449
17.1962890497
16.8861874189
15.8509884257
15.8209359101
16.3395846023
17.1140418908
18.0259407349
19.409727349
22.8913021549
24.5308693826
23.5102338947
25.7919126922
27.4920607949
26.9352827848
28.4024736325
29.2372398387
29.0497237307
29.6832440962
30.4193638366
31.2154391113
32.0575564825
32.9689238427
33.8984931405
34.843389717
35.8295842743
36.819925079
37.7940846398
38.7284213828
39.5549137103
40.2298965205
40.763999832
41.1812938945
41.4885889407
41.6826028549
41.7729133715
41.783452349
41.7552299385
41.7744081935
41.9188194397
42.0863671233
41.7600035872
41.0004897761
41.4333040894
34.1684232861
26.6422676244
9.96921736349
2.34398477926e-09
4.76010509756e-13
1.64867275573e-15
1.68210434334e-16
1.33484940141e-17
3.760001448e-18
4.42580461393e-17
4.52207944239e-16
5.10816625195e-15
1.33420586832e-14
2.21555283526e-11
5.81571777575e-09
5.30693435814e-06
0.00274891461797
6.94790798093
40.4455198065
43.2633017149
48.2644408506
51.6423233744
51.9749129132
14.0342463665
14.1353688612
16.3056664973
16.356029172
16.4446439821
14.7789395608
14.8096293674
17.160671834
14.5246240693
18.7114102155
18.3090745789
17.484494078
16.3374144037
15.2505600019
17.5131933012
17.1737702553
16.3452994997
16.3026477414
16.730047536
17.4194956374
18.2426562228
19.3576302755
22.3575815426
25.2950367746
25.580299638
25.2163685328
27.6381174451
28.7139525907
27.5484942601
28.0486389339
28.9675640139
29.8847095644
30.7488674521
31.5794640193
32.4333495221
33.3297232228
34.2721749972
35.2441159993
36.2392054373
37.2796938646
38.3213166144
39.3142914317
40.2019219479
40.9455152225
41.5616183134
42.0782976547
42.4934284378
42.7886545669
42.9668933824
43.0765884571
43.2344847498
43.6057326096
44.2360616555
44.6733686444
43.922689151
41.8732160189
27.1975442951
5.5908441192e-19
6.14934875985e-22
1.15278306211e-23
1.95404628887e-25
5.65354073661e-28
1.60661286754e-30
2.78101646474e-35
2.1753193298e-35
5.28117510926e-35
3.55992956992e-34
1.66745113521e-33
6.15957281687e-33
3.91431226627e-32
3.06481912517e-32
2.65889722221e-30
1.51335679378e-27
1.52124650114e-25
1.15436911689e-23
2.65823313404e-21
4.4746428487e-17
40.8423641313
55.8072050991
51.9468323456
14.8865145974
15.0821334347
17.9414114478
17.1001079312
16.6661641736
15.4957066942
15.834593963
17.9567532368
17.9395734469
19.7182697402
18.874279357
18.0431619688
16.7895057176
15.8090189731
17.8481157059
17.383416334
16.801122496
16.784323052
17.1311903527
17.7292713044
18.5033871459
19.5322662368
21.869844158
25.5040131597
26.8609987742
25.0224932825
27.0749364666
28.7810044016
28.9973497922
28.3709482802
28.9890898687
30.0549492293
31.0660021082
31.9746672183
32.8123790242
33.7200974752
34.6711602018
35.6735032602
36.7029837606
37.7770153184
38.8852175267
39.954661009
40.9041907587
41.7102646678
42.4257742159
43.0961109837
43.6709266871
44.0679735539
44.2814677302
44.4665463288
44.8423525278
45.5919091295
46.6937268665
46.8104490701
38.5514897399
15.5220117325
3.09168464747e-25
1.25198308228e-27
3.62053240525e-29
5.27083150931e-31
4.28243921805e-34
7.14566022809e-37
5.03700868856e-38
0
0
0
0
0
0
0
0
7.00562009904e-42
2.36285062641e-39
3.5343208988e-37
2.050499802e-34
2.86404499612e-31
1.55095356484e-26
2.35531021884e-22
1.8362900632e-15
61.6220826167
15.5770135585
15.7942566907
20.0300133962
17.6844602938
16.6505408572
16.1197334649
16.5741152151
18.102806036
19.510016832
20.8588505839
19.5897879949
18.7357669409
17.4875474126
16.6449218048
18.3867691833
17.7361216654
17.3232286234
17.3047493405
17.5668232787
18.0735060138
18.7687229908
19.7189645729
21.6467775847
25.3326422638
27.7947162495
27.2391089272
26.5439801949
28.1011251737
28.8031109786
28.4685611545
29.3650141253
30.4428600289
31.5015108676
32.4140405709
33.2799704609
34.1489180633
35.1168868678
36.1341951916
37.2051975038
38.3232872748
39.4839251464
40.6351875919
41.6804731328
42.5538631718
43.3719233157
44.22807255
45.0029946595
45.5024038551
45.7357977301
45.9791971033
46.5697878453
47.7314331615
48.9642818956
37.168173986
0.372812931149
4.47605064502e-28
1.46794972057e-31
5.93578240027e-33
8.09326061605e-35
2.21939201239e-37
0
0
0
0
0
0
0
0
0
0
0
0
0
9.02674069741e-41
8.97002998682e-40
1.9664249257e-38
9.53492254691e-37
5.29496128157e-33
4.40733307315e-24
8.49584590006e-29
16.1030739331
16.312741055
22.0295165133
18.1269013929
16.8434534265
16.6824130243
17.3610971108
17.5963216204
20.4316091894
21.6704014213
20.2707169564
19.4360830033
18.3680173603
18.4313523537
19.1431666596
18.3265011604
18.0344081058
18.0109652284
18.1073703538
18.500218138
19.0835378679
19.9477237243
21.596478877
25.1236284131
28.1489025501
28.80779453
26.5184887447
27.157259571
27.7550487984
28.5145646594
29.6190868879
30.8535648095
31.9329950339
32.8994444145
33.7969780015
34.7187900736
35.6265567514
36.6544039753
37.7505617411
38.899736925
40.1411014869
41.3887078983
42.5225540907
43.4236466931
44.2947295225
45.6350129587
47.2163478608
47.9359637665
47.621885361
47.7365624427
48.4510434667
49.7811785383
36.593328776
2.36864594563e-22
3.5698597205e-27
1.6014951989e-38
1.61833073817e-35
2.64066978076e-37
0
0
0
0
0
0
0
0
0
0
0
0
0
0
0
0
0
0
1.39460313757e-39
9.44402210156e-39
1.74155597502e-36
95.6810049721
16.5377768984
16.7143928358
21.8945224484
17.6534153273
17.0785392525
17.1578153264
18.2442730571
17.6608333083
21.2160664138
22.4125434799
20.9027607901
20.0732678864
19.0510421231
20.5313499374
20.1727072429
19.1116398611
18.8502414231
19.041418465
18.8650765816
19.0923614362
19.4939647075
20.2236415083
21.6798406445
24.9013796917
27.960926279
29.8373701565
28.8815684769
28.2626960942
28.4244254014
28.6598400745
29.8235963126
31.3541304545
32.3476208383
33.3976701085
34.493575788
35.3054650107
36.2200739957
37.2658394306
38.395001931
39.572098773
40.8165431999
42.1439844836
43.4222307698
44.6203562789
45.8997864408
47.573227317
49.0914682652
49.6508762088
49.9611768559
50.2231766213
50.5791364495
40.0821696605
1.07716775348e-21
9.83239055899e-27
1.29229318497e-30
1.75518184147e-32
0
0
0
0
0
0
0
0
0
0
0
0
0
0
0
0
0
0
0
0
0
0
4.2911713722e-39
3.12334462591e-28
17.0168692039
17.168974246
21.5567583782
17.3735145178
17.3687350493
17.5361689202
18.9994764209
18.1365519917
21.9095088877
23.1359999492
21.5168382604
20.6911062614
19.6064090314
21.2940610398
21.1131074117
19.9455011785
19.6447996895
19.9263787896
19.7659802212
19.89600947
20.0931432505
20.559503502
21.9204376386
24.8122840316
27.6095505907
30.0686312766
29.9995975498
28.8519970231
28.0658175862
29.0559068338
30.2025450387
31.709152903
33.0295875447
34.2287966257
35.2767956926
36.0057142567
36.8970040681
37.9591264217
39.1197881802
40.3472041133
41.6258775366
43.0453633022
44.593198588
46.2465108198
47.5531570686
48.5793464349
49.9290296364
51.2037287894
53.0750887908
54.194793592
44.4214652089
9.815092962e-21
1.30325696642e-26
2.24739982086e-30
4.60953276782e-33
1.11605655237e-34
3.74622301304e-37
0
0
0
0
0
0
0
0
0
0
0
0
0
0
0
0
0
0
0
0
0
7.21145781542e-40
9.54141736937e-40
17.7206236126
17.8719761544
21.2660009992
17.653913383
17.896789579
18.0005528336
19.0405124082
18.8341252583
22.4202723836
23.819601672
22.1509242384
21.3410760002
20.256413977
21.9689298368
21.9402784427
20.8377449202
20.4733850096
20.7731564117
20.6403135472
20.8343010304
20.9435645733
21.0456152155
22.352276594
24.9286612099
27.40067865
30.0619321277
30.5074785597
29.6524445304
28.5695794739
29.2085092301
30.6608266075
31.8623171593
33.0963246229
34.4804080812
36.1240465878
36.9917395912
37.8098441676
38.7647111677
39.9007548161
41.2056834992
42.5983041056
44.1514992722
46.1844734685
47.9913218939
48.7894106311
49.7425408683
51.6644201962
55.1991070512
60.8757618648
48.9260382481
2.80420262719e-21
4.65827291532e-28
1.92770226438e-32
6.32030307742e-36
3.96565123216e-38
8.03805367016e-38
1.23434510231e-38
0
0
0
0
0
0
0
0
0
0
0
0
0
0
0
0
0
0
0
0
0
5.33020011441e-41
2.42028725014e-40
18.7908351596
18.9062403415
21.573997361
18.5487963512
18.9968223689
18.8191989813
19.3643094669
20.0829682471
22.5143821792
24.3380101111
22.8336936473
22.046726378
20.9983135256
22.7368311734
22.7864943723
21.8711659662
21.4600848303
21.7461864437
21.5169595228
21.8563527598
22.0792742245
21.7351671499
22.8692587225
25.2577561886
27.3958764705
29.8598220592
30.6968871293
30.3217240481
30.3652991817
29.9788975098
30.9414428802
32.4538075144
34.214001626
35.0247749557
36.425415573
37.9505085243
38.8486143854
39.851341389
40.9088022608
42.1524783609
43.6778583193
45.8014255413
48.3196279323
49.5417693667
49.9669908212
51.4877495923
55.6455039545
61.9537292563
55.3854688313
32.7290285609
7.0575349196e-30
6.58917115973e-35
4.50852812072e-37
0
0
0
0
0
0
0
0
0
0
0
0
0
0
0
0
0
0
0
0
0
0
0
0
0
0
0
20.2926349486
20.1913840065
22.3864040288
20.343989909
20.8572330747
20.0271281306
20.2758601741
21.8871412312
22.7515043047
24.9462137195
23.6147465955
22.8174895739
21.8065111214
23.5369301157
23.625290805
23.002920553
22.8873149656
23.0138263751
22.4832481171
22.9577376168
23.4877530039
22.7053490771
23.2732634302
25.6786242986
27.6029073776
29.68545818
30.7839759397
30.4587773887
31.4866440276
31.4687739099
31.8671307716
32.1972021948
34.0055884223
36.0766972876
37.3204597934
38.6968316562
39.8854066108
40.9403659777
42.1150061432
43.3846433813
45.2276123714
48.1629904888
50.4334029843
51.227775974
52.1594860468
55.4928648481
62.4537861478
58.5671847042
34.0717063235
6.29826643147e-32
1.10106990745e-34
5.0416587162e-37
0
0
0
0
0
0
0
0
0
0
0
0
0
0
0
0
0
0
0
0
0
0
0
0
0
0
0
0
21.8733226857
21.3869502039
23.2466702122
22.7212354287
22.4865253047
21.4058254697
21.2586106967
22.9625203547
22.0675205873
25.4161907432
24.476370594
23.6438839326
22.6683356984
24.3369683201
24.3961203449
23.940838941
24.8217110797
24.5259918856
23.5507356463
24.1477021606
24.7431883208
23.9285547109
23.4237985665
25.6160835923
27.7113282442
29.5303861459
30.7590131113
30.4570338448
31.8219432497
32.6758663292
33.2011770038
32.8962467478
34.08167761
35.9988158093
38.1541691782
39.8526239843
41.1426070246
42.1904970626
43.3604187823
44.94787369
47.706280001
50.8396163833
52.7244679429
53.8927873267
56.2591096591
61.0741404023
59.7891378067
33.1611766255
1.69586279497e-31
2.45511919042e-34
8.59830103863e-37
0
0
0
0
0
0
0
0
0
0
0
0
0
0
0
0
0
0
0
0
0
0
0
0
0
0
0
0
0
22.6229963199
22.1869547065
23.7646659747
23.7016688646
23.4717790068
22.6812478299
22.3567299605
24.2457640271
23.0479324913
26.0115398366
25.3432420028
24.4983071042
23.5771282063
25.1475684043
25.1528409831
24.7016426898
25.7336471658
25.5694034873
24.541998698
25.2748440285
25.4148485675
24.6643076489
24.2904408054
24.502079598
27.0601240296
28.8768063777
30.4023425239
30.2764172715
31.7706386718
33.1335860505
34.2779837299
34.5512548319
34.4436071371
35.9710411684
38.3051768955
40.6632929101
42.5099320887
43.8189589202
44.9808088465
47.3635810535
50.7912767608
53.6583328441
55.3675944901
57.3298987004
61.0350760575
57.7299065343
34.7806250217
24.2086335277
8.07026669264e-34
2.2984537346e-36
0
0
0
0
0
0
0
0
0
0
0
0
0
0
0
0
0
0
0
0
0
0
0
0
0
0
0
0
0
0
22.6327112487
22.6328326699
24.0316303219
23.8443132332
24.0498991523
23.6368747078
23.2870390305
25.5024694084
24.6188960986
26.753642508
26.2494752616
25.3635383249
24.5274445643
25.9838176613
25.9555254881
25.5639661387
26.4690902566
26.4471277309
25.5413560503
26.1980819264
25.2733435368
25.3083928626
25.1856731212
25.4102975567
26.1741292547
27.2774205642
29.3249048294
29.8038121559
31.1965046384
32.9996501633
34.5955245625
35.7870858343
35.8440939283
36.653800749
38.442334554
40.8224892593
43.3992563595
45.5141138196
47.2863263537
50.4901166557
53.9793092799
56.4444603938
57.9387042739
59.9450606007
55.7356334843
37.4407571417
39.6442601885
2.80325209759e-33
6.27954693093e-36
0
0
0
0
0
0
0
0
0
0
0
0
0
0
0
0
0
0
0
0
0
0
0
0
0
0
0
0
0
0
0
22.7634179297
22.8953912066
24.2207073506
22.9135682764
24.23612313
24.1099043566
23.8642783521
26.0324034309
25.3698495093
27.4734369983
27.1604594094
26.2042075583
25.5239316954
26.8329483137
26.7817964583
26.5458273767
27.2998231713
27.4314245106
26.6686285452
27.4982401401
26.5029791122
26.7781104385
26.3313970627
26.619266704
27.7955508101
28.3996467702
28.69533854
29.2131401488
30.505358338
32.6733262044
34.3313977932
35.8295741154
36.915332639
37.6016493056
39.5202917459
41.4266627673
44.0835341832
47.0544118853
50.0987824935
53.9035028223
57.1066233743
58.9707810511
59.01238151
56.9399614519
56.8618942119
34.8136180419
2.35228231521e-32
5.35508579428e-35
0
0
0
0
0
0
0
0
0
0
0
0
0
0
0
0
0
0
0
0
0
0
0
0
0
0
0
0
0
0
0
0
23.309108255
23.4070903525
24.404437192
23.1749849126
24.36967811
24.3074301731
24.2138847752
26.1376204867
25.8380741465
27.9643293396
28.0178741349
26.9597847873
26.5515779152
27.6420327974
27.5438281763
27.4781441322
28.086315199
28.4859140507
27.8409221963
28.8267314475
28.1613096455
28.6656735549
28.5347977404
27.5455632782
28.491473501
29.3468832592
29.5617945866
28.6873526102
29.6949773936
32.2405255855
34.1418736906
35.2401793485
36.4954331295
37.6595315452
39.7242020068
41.937924082
44.8344661609
48.574813179
53.09117281
57.4693367007
60.0788025058
60.733409056
59.1709832372
54.4536122304
35.1345326395
47.229553289
3.73163430478e-34
1.51318600702e-36
0
0
0
0
0
0
0
0
0
0
0
0
0
0
0
0
0
0
0
0
0
0
0
0
0
0
0
0
0
0
0
0
24.0171879031
25.035898027
24.7061005925
23.9497252396
24.7419386851
24.532241978
24.5177120935
26.1829323161
26.2335867346
28.0947637994
28.8128792527
27.5891798465
27.4229662243
28.2559270871
28.2103830494
28.1357820861
28.3301274808
29.4076617923
29.0437520724
29.9529453408
29.9175819485
29.8839431531
29.7979415784
29.4378310052
28.7376165157
29.3301005943
30.1906981548
27.8521547116
28.7199292254
31.1599208167
33.7868292797
35.3228844576
36.6526438895
37.2217014327
39.1850870431
41.844100881
45.1631859275
49.9444597423
56.1036777989
60.9830445528
62.7203472417
59.8615434322
58.4368534624
61.3782238181
41.6023517547
2.52933558211e-33
6.45547277798e-36
0
0
0
0
0
0
0
0
0
0
0
0
0
0
0
0
0
0
0
0
0
0
0
0
0
0
0
0
0
0
0
0
0
24.4804435333
25.5483327219
25.1995800525
24.6008950748
25.2269913286
24.888423992
24.8532559548
26.2694513507
26.587759292
27.9365166278
29.4726309818
28.1411402913
27.8736930112
28.694838645
28.8759768593
28.6648062757
28.4616404961
30.0119699639
30.2338726676
30.8926634376
31.0796700809
31.3251561773
30.3107981042
30.323877725
29.7885298555
30.6325417644
31.1681519836
28.9315969391
27.6281011565
29.5314685127
32.4514884366
34.8835421747
36.4188918588
37.1744948015
38.1856701934
40.9219369996
44.6504674878
50.8501106934
58.963391334
64.5766527755
64.4846971667
60.7177301003