/*--------------------------------*- C++ -*----------------------------------*\
| =========                 |                                                 |
| \\      /  F ield         | OpenFOAM: The Open Source CFD Toolbox           |
|  \\    /   O peration     | Version:  v1806                                 |
|   \\  /    A nd           | Web:      www.OpenFOAM.com                      |
|    \\/     M anipulation  |                                                 |
\*---------------------------------------------------------------------------*/
FoamFile
{
    version     2.0;
    format      ascii;
    class       surfaceScalarField;
    location    "904";
    object      phia;
}
// * * * * * * * * * * * * * * * * * * * * * * * * * * * * * * * * * * * * * //

dimensions      [0 3 -1 0 0 0 0];
oriented        oriented;


internalField   nonuniform List<scalar> 
12640
(
4.9806870524e-08
-4.85750631613e-08
9.37568514784e-08
-4.27577833942e-08
1.31557270455e-07
-3.6860384754e-08
1.63930646662e-07
-3.15026930814e-08
1.89543888677e-07
-2.48695161744e-08
2.08469518385e-07
-1.84345402333e-08
2.25255150798e-07
-1.63935149988e-08
2.48443059151e-07
-2.28373780347e-08
2.78235613345e-07
-2.94339695906e-08
3.08295729769e-07
-2.97196189824e-08
3.37893860796e-07
-2.92522251526e-08
3.69270528891e-07
-3.10670737988e-08
4.00647300548e-07
-3.10817551943e-08
4.31308278235e-07
-3.04111639445e-08
4.63000355034e-07
-3.14711237216e-08
4.98459329576e-07
-3.53148196664e-08
5.36162224429e-07
-3.75654886583e-08
5.73338145507e-07
-3.70615187334e-08
6.09837173899e-07
-3.63292742973e-08
6.48247445474e-07
-3.822518798e-08
6.92486486977e-07
-4.40281659474e-08
7.41881357334e-07
-4.92134752705e-08
7.92709643067e-07
-5.06473670344e-08
8.43198165856e-07
-5.03502517345e-08
8.93009272627e-07
-4.96735150223e-08
9.4251814409e-07
-4.94090352563e-08
9.92480047799e-07
-4.98570417679e-08
1.04258189729e-06
-5.00336384458e-08
1.09242180443e-06
-4.97632173352e-08
1.14220899682e-06
-4.97442448355e-08
1.19268508062e-06
-5.04203861175e-08
1.24344508506e-06
-5.07366927678e-08
1.2941431666e-06
-5.06675401858e-08
1.34615797605e-06
-5.20061582604e-08
1.39934867721e-06
-5.31573657386e-08
1.45295774668e-06
-5.36027635056e-08
1.50685869796e-06
-5.38737907749e-08
1.55973933449e-06
-5.28708029032e-08
1.6106356035e-06
-5.08694923137e-08
1.65955370488e-06
-4.89231724237e-08
1.70728895435e-06
-4.77319551318e-08
1.75198187184e-06
-4.47210892706e-08
1.7912405521e-06
-3.92751874857e-08
1.82646671441e-06
-3.52658160328e-08
1.85909118696e-06
-3.26492440551e-08
1.88878821831e-06
-2.97455864223e-08
1.91518929515e-06
-2.6435178454e-08
1.93761470102e-06
-2.24810386265e-08
1.95600224484e-06
-1.84276371751e-08
1.97207911085e-06
-1.61348209128e-08
1.98803302502e-06
-1.59888711944e-08
2.00129351647e-06
-1.33078866635e-08
2.00603720387e-06
-4.77256452503e-09
2.00399838663e-06
2.00315342569e-09
1.99465989775e-06
9.32823131693e-09
1.97624048639e-06
1.84140814115e-08
1.95811891525e-06
1.81625576653e-08
1.94423833075e-06
1.3952476468e-08
1.92685853057e-06
1.75128294927e-08
1.9064255907e-06
2.06317072214e-08
1.89152894991e-06
1.51901838193e-08
1.87154481716e-06
2.03479391017e-08
1.81842262592e-06
5.35129649405e-08
1.70968806148e-06
1.09027831836e-07
1.58521757663e-06
1.24687158914e-07
1.48525515617e-06
1.00102088954e-07
1.39026992376e-06
9.51197794419e-08
1.29233400192e-06
9.80867153103e-08
1.18545162736e-06
1.07054900362e-07
1.06332366062e-06
1.22302858188e-07
9.32297172563e-07
1.31202042132e-07
8.02127045893e-07
1.30340897604e-07
6.76928065995e-07
1.25338815996e-07
5.43776549049e-07
1.33270047481e-07
4.29174156326e-07
1.14696579322e-07
3.29640345296e-07
9.96478156968e-08
2.58962242584e-07
7.08122660644e-08
1.80235888496e-07
7.88905029097e-08
1.09090559305e-07
7.10880139586e-08
1.09238301396e-07
2.66220439017e-08
-7.40545604894e-08
6.15699655874e-08
-7.66707176736e-08
9.53799949874e-08
-6.97458901226e-08
1.29689031597e-07
-6.50363818992e-08
1.71035600165e-07
-6.56293265766e-08
2.03279607803e-07
-5.01018003729e-08
2.25902544598e-07
-3.85810672899e-08
2.50527794944e-07
-4.70020656963e-08
2.78158712779e-07
-5.66742585502e-08
3.08191742349e-07
-5.93268148106e-08
3.38551016865e-07
-5.92741197988e-08
3.67489409471e-07
-5.96408108317e-08
3.96565570142e-07
-5.99008040748e-08
4.26994802937e-07
-6.05971671557e-08
4.59333874639e-07
-6.36856358525e-08
4.9564583451e-07
-7.14613331445e-08
5.32391389118e-07
-7.42161785637e-08
5.65069904193e-07
-6.95471859084e-08
5.98843832055e-07
-6.99407338811e-08
6.39313823084e-07
-7.84493298318e-08
6.86689476553e-07
-9.12120606911e-08
7.38844010143e-07
-1.01131470471e-07
7.90844709053e-07
-1.02507220957e-07
8.40177168877e-07
-9.94991695068e-08
8.89167858585e-07
-9.85677678006e-08
9.39633731976e-07
-9.97309286469e-08
9.89839328347e-07
-1.00001041563e-07
1.0396140522e-06
-9.96957487998e-08
1.08951424279e-06
-9.9629369756e-08
1.13972214439e-06
-9.98667122553e-08
1.18990179773e-06
-1.00591538866e-07
1.24010247361e-06
-1.00882011587e-07
1.29023757657e-06
-1.00809665753e-07
1.34220548296e-06
-1.03925782198e-07
1.3966895886e-06
-1.0765864329e-07
1.45089946164e-06
-1.07761210676e-07
1.50456512476e-06
-1.07547411499e-07
1.55882172328e-06
-1.07082323571e-07
1.612727007e-06
-1.04793574075e-07
1.66310104555e-06
-9.92687030387e-08
1.70379792769e-06
-8.84713345984e-08
1.73748844985e-06
-7.84114035273e-08
1.77268696451e-06
-7.45325085084e-08
1.80936439806e-06
-7.19556533236e-08
1.84442918051e-06
-6.77801026569e-08
1.87719425606e-06
-6.25347917139e-08
1.90671475799e-06
-5.60308440072e-08
1.93302348685e-06
-4.88257361312e-08
1.95561536805e-06
-4.10996287261e-08
1.97164265894e-06
-3.22032238521e-08
1.97864265601e-06
-2.30663429925e-08
1.98257711584e-06
-1.72807041694e-08
1.99371927966e-06
-1.59780583711e-08
2.00097110961e-06
-5.27301411729e-09
1.99559454478e-06
1.46690108667e-08
1.98877386186e-06
2.52491535276e-08
1.98030807122e-06
2.66503162467e-08
1.96592064186e-06
2.84268499394e-08
1.95037825131e-06
3.31816228255e-08
1.93209006824e-06
3.91389064295e-08
1.89883132365e-06
4.87022075286e-08
1.86003627316e-06
5.94692878132e-08
1.79894811039e-06
1.1493347425e-07
1.68871161465e-06
2.19571413963e-07
1.54005186642e-06
2.73510901395e-07
1.39249426185e-06
2.47789270687e-07
1.30197352308e-06
1.85755783016e-07
1.23693647288e-06
1.63265378771e-07
1.15145767098e-06
1.9268641301e-07
1.03529713837e-06
2.38644418118e-07
8.96878308237e-07
2.69798320339e-07
7.5555170985e-07
2.71828967581e-07
6.37129549024e-07
2.43903394263e-07
5.47696833231e-07
2.22841599044e-07
4.5971193294e-07
2.02809020642e-07
3.77625089967e-07
1.81875966397e-07
2.91320071316e-07
1.57249130839e-07
2.13972890197e-07
1.56334914512e-07
1.12126755888e-07
1.7320338492e-07
2.2126133654e-07
3.22374105069e-08
-1.05862430766e-07
5.02961262547e-08
-9.38681640839e-08
8.87677665846e-08
-1.0734629515e-07
1.32472046672e-07
-1.08035807934e-07
1.73643902819e-07
-1.0621989925e-07
1.9689260096e-07
-7.28648246459e-08
2.12597711951e-07
-5.37373584106e-08
2.391132585e-07
-7.29272561755e-08
2.69567591949e-07
-8.6580368899e-08
3.00375157984e-07
-8.96701494769e-08
3.30938047597e-07
-8.94195817499e-08
3.60078718035e-07
-8.84829797291e-08
3.88847565048e-07
-8.84604031849e-08
4.19520246741e-07
-9.11305033549e-08
4.50004035723e-07
-9.40396745135e-08
4.70291289167e-07
-9.16281710284e-08
4.83864537511e-07
-8.76129057095e-08
5.09911199421e-07
-9.54074863769e-08
5.55677436369e-07
-1.15473244039e-07
6.17982103322e-07
-1.40528568666e-07
6.81740152804e-07
-1.54743170441e-07
7.34499282794e-07
-1.53711058416e-07
7.82734223277e-07
-1.50561907991e-07
8.33034493771e-07
-1.49664839244e-07
8.83767164677e-07
-1.49162404597e-07
9.33248589209e-07
-1.49114534244e-07
9.82683722645e-07
-1.49330221262e-07
1.03267021576e-06
-1.49614506869e-07
1.08288633819e-06
-1.49770005964e-07
1.13348239152e-06
-1.50425684005e-07
1.18353517431e-06
-1.50599778026e-07
1.23385735008e-06
-1.5118434086e-07
1.28543280003e-06
-1.52360730815e-07
1.33581483712e-06
-1.54301771327e-07
1.38900941352e-06
-1.60815818478e-07
1.44703458366e-06
-1.65773327174e-07
1.50224934065e-06
-1.62732203452e-07
1.55537077559e-06
-1.60195758759e-07
1.6100950338e-06
-1.59498834049e-07
1.66225629038e-06
-1.51445912283e-07
1.70999367294e-06
-1.36218253133e-07
1.75365141835e-06
-1.22106101904e-07
1.79279417474e-06
-1.13700439895e-07
1.82845739012e-06
-1.07669199678e-07
1.86134510143e-06
-1.00708081159e-07
1.8911359032e-06
-9.23891614707e-08
1.91788108024e-06
-8.28293487504e-08
1.94137954754e-06
-7.2397111764e-08
1.96135220758e-06
-6.11339650628e-08
1.97806277697e-06
-4.8991898178e-08
1.99204982264e-06
-3.71176588134e-08
2.00191377005e-06
-2.72164568814e-08
2.00293658751e-06
-1.70553670157e-08
1.99833600614e-06
-7.2517025852e-10
1.99611157277e-06
1.68718246393e-08
1.99290190833e-06
2.84553578616e-08
1.98310032249e-06
3.64935048326e-08
1.96760877041e-06
4.39978508882e-08
1.94870684189e-06
5.22241956019e-08
1.92573438093e-06
6.22975391215e-08
1.89727703551e-06
7.74060460334e-08
1.83921138607e-06
1.17817383782e-07
1.71517619795e-06
2.39249039373e-07
1.53902845523e-06
3.95938245609e-07
1.39918211652e-06
4.13527944181e-07
1.33339369727e-06
3.13705355678e-07
1.25740141946e-06
2.61863136643e-07
1.15851171035e-06
2.62279246592e-07
1.04891675973e-06
3.02429982576e-07
9.26251335463e-07
3.61478593602e-07
8.07848931397e-07
3.88375837049e-07
7.15489168702e-07
3.64357214703e-07
6.34326868311e-07
3.25220939089e-07
5.49576525572e-07
3.07720245258e-07
4.49559617742e-07
3.02946037298e-07
3.48837491598e-07
2.82714520205e-07
2.63647617056e-07
2.42596014466e-07
1.99764177964e-07
2.20403793523e-07
8.60387200944e-08
2.86769538997e-07
3.07447984393e-07
2.236564802e-08
-1.27178627131e-07
3.11430097849e-08
-1.02028716617e-07
7.23265211931e-08
-1.47797904803e-07
1.07736696909e-07
-1.42838561585e-07
1.14745270339e-07
-1.12744443117e-07
1.06279980648e-07
-6.40841389664e-08
1.47114511264e-07
-9.40496791492e-08
2.08964717261e-07
-1.34047201786e-07
2.52624604814e-07
-1.29620599351e-07
2.86879625382e-07
-1.23407475076e-07
3.19132744177e-07
-1.2130891161e-07
3.49482913995e-07
-1.18600156421e-07
3.76757118498e-07
-1.15581953664e-07
3.94001166479e-07
-1.08266136814e-07
4.03473052847e-07
-1.03382564216e-07
4.20624115405e-07
-1.08579736096e-07
4.57451216757e-07
-1.24212824045e-07
5.13251509405e-07
-1.50954341623e-07
5.76757189359e-07
-1.78740279999e-07
6.3085674195e-07
-1.94405101106e-07
6.76163778577e-07
-1.99856305365e-07
7.24028734164e-07
-2.01386049508e-07
7.74014915854e-07
-2.00390628928e-07
8.23410632289e-07
-1.98912235571e-07
8.72568675157e-07
-1.98205086312e-07
9.21852663005e-07
-1.98286771892e-07
9.71884906813e-07
-1.99280079252e-07
1.0222809313e-06
-1.99926395389e-07
1.07313082014e-06
-2.00564769603e-07
1.12356766224e-06
-2.00813528827e-07
1.17490137505e-06
-2.01907531822e-07
1.22476290126e-06
-2.01023948853e-07
1.27429842902e-06
-2.01875638485e-07
1.33081485153e-06
-2.10784003663e-07
1.38769572078e-06
-2.17675795315e-07
1.44382800287e-06
-2.21872909422e-07
1.50473719764e-06
-2.23623085964e-07
1.56332497487e-06
-2.18765874497e-07
1.61467896557e-06
-2.10858372522e-07
1.66242464049e-06
-1.99195775965e-07
1.70920992696e-06
-1.83026022904e-07
1.75390220392e-06
-1.66820898641e-07
1.79448587904e-06
-1.54327511429e-07
1.83094866433e-06
-1.44176432948e-07
1.86397704339e-06
-1.3379901848e-07
1.89378386346e-06
-1.22257698393e-07
1.92041368692e-06
-1.09535375372e-07
1.94377305303e-06
-9.58294267409e-08
1.96376932656e-06
-8.12145331794e-08
1.98052500934e-06
-6.58273371212e-08
1.99373099061e-06
-5.04117950023e-08
2.00186239252e-06
-3.54292146962e-08
2.00388024392e-06
-1.91519039567e-08
2.00285848687e-06
2.41343836614e-10
2.00037225932e-06
1.9322584783e-08
1.99405009093e-06
3.47813117321e-08
1.98242839753e-06
4.81504193321e-08
1.9650623445e-06
6.14492510879e-08
1.94104951067e-06
7.63633643944e-08
1.9067108308e-06
9.68052314168e-08
1.85021113231e-06
1.34096312607e-07
1.75132338087e-06
2.16920922009e-07
1.62400995428e-06
3.6680641373e-07
1.50550590652e-06
5.1466779182e-07
1.37473966294e-06
5.44469208609e-07
1.24841936521e-06
4.40127845603e-07
1.14893963058e-06
3.61445454051e-07
1.06255656364e-06
3.48781418446e-07
9.78740189367e-07
3.86397522269e-07
8.88142375877e-07
4.52262975126e-07
7.87213754399e-07
4.89496615386e-07
6.82633941897e-07
4.69104841452e-07
5.73475112896e-07
4.34510672273e-07
4.64948770209e-07
4.16353284633e-07
3.64583608087e-07
4.0340527779e-07
2.61796726805e-07
3.85611146441e-07
1.72894240111e-07
3.31560933209e-07
1.15956087061e-07
2.77318793491e-07
5.9673300276e-08
3.43298442004e-07
3.67027290991e-07
4.20166061233e-09
-1.31241936652e-07
2.56134390034e-08
-1.2297763005e-07
5.71239524007e-08
-1.78779584227e-07
8.29270392371e-08
-1.6824984739e-07
8.10607476145e-08
-1.10493778539e-07
1.05239593573e-07
-8.78046723771e-08
1.55324742815e-07
-1.4346543565e-07
1.93434399262e-07
-1.71497940497e-07
2.29608901487e-07
-1.6517256929e-07
2.65624676938e-07
-1.5896460379e-07
3.01072472654e-07
-1.56477770676e-07
3.26386721266e-07
-1.43723783162e-07
3.35951114436e-07
-1.25025547959e-07
3.46159942899e-07
-1.18306525406e-07
3.74307427342e-07
-1.31282280282e-07
4.20519829529e-07
-1.54514195336e-07
4.77579579248e-07
-1.80987394282e-07
5.32087461779e-07
-2.05200308449e-07
5.75520038235e-07
-2.2194348498e-07
6.16124341547e-07
-2.34808323386e-07
6.61901029385e-07
-2.45443139979e-07
7.10487889451e-07
-2.49802391242e-07
7.59575308972e-07
-2.49320928825e-07
8.08464544006e-07
-2.47671202996e-07
8.57465461253e-07
-2.4708783302e-07
9.07293136796e-07
-2.48021224653e-07
9.57244868554e-07
-2.49137487139e-07
1.0084068272e-06
-2.51019326784e-07
1.05893303993e-06
-2.51038978623e-07
1.11002369403e-06
-2.51872285778e-07
1.15914526147e-06
-2.51001529649e-07
1.21199931166e-06
-2.53849375701e-07
1.27032900549e-06
-2.60171278014e-07
1.32671275768e-06
-2.67132343648e-07
1.38643685079e-06
-2.7736004693e-07
1.44916511743e-06
-2.84575061988e-07
1.50757991416e-06
-2.82019722004e-07
1.56232038859e-06
-2.7350444701e-07
1.6136416369e-06
-2.6218178929e-07
1.66236522993e-06
-2.479345965e-07
1.70974169404e-06
-2.30422560051e-07
1.75507330897e-06
-2.12187879141e-07
1.79668111706e-06
-1.95978220756e-07
1.83403675969e-06
-1.81591617746e-07
1.86754109535e-06
-1.673703575e-07
1.89753098143e-06
-1.52328081893e-07
1.92414344576e-06
-1.36232061175e-07
1.94735793706e-06
-1.19137824502e-07
1.96713522675e-06
-1.0108748274e-07
1.98341074525e-06
-8.22068212157e-08
1.99571988551e-06
-6.28254094686e-08
2.00311609418e-06
-4.29305283334e-08
2.00554122232e-06
-2.16685254149e-08
2.00466523034e-06
1.04398008074e-09
2.00089791755e-06
2.30513282314e-08
1.99244705983e-06
4.32222630512e-08
1.97734738195e-06
6.32856494258e-08
1.95320732609e-06
8.56586116201e-08
1.91592204268e-06
1.13756615245e-07
1.85795068705e-06
1.54905916381e-07
1.76901160602e-06
2.23191063349e-07
1.65196881197e-06
3.34152594093e-07
1.54235503369e-06
4.76602495429e-07
1.45089283574e-06
6.06327466802e-07
1.35855418699e-06
6.36938419161e-07
1.23614821214e-06
5.62667647253e-07
1.10102292906e-06
4.96679028015e-07
9.85212005405e-07
4.64728718259e-07
8.9266651358e-07
4.79107074328e-07
8.05861954292e-07
5.3924965049e-07
7.04338475599e-07
5.91196424181e-07
5.96009269747e-07
5.77583263394e-07
4.91354995675e-07
5.39265393103e-07
3.87031459843e-07
5.20751813271e-07
2.83423612609e-07
5.07086955074e-07
1.89872327451e-07
4.79205041322e-07
1.34843172914e-07
3.86650403659e-07
8.3054152864e-08
3.29234647146e-07
3.23091804253e-08
3.93870490797e-07
3.99445242943e-07
1.26695351914e-09
-1.31853185535e-07
2.8634282951e-08
-1.49918969163e-07
4.48803828728e-08
-1.94611890562e-07
5.70958217927e-08
-1.80015339402e-07
5.72238279385e-08
-1.10275456839e-07
1.0675047386e-07
-1.36793028709e-07
1.52608994424e-07
-1.8867253078e-07
1.77166757078e-07
-1.95404343153e-07
2.07103057035e-07
-1.94610605562e-07
2.38585841337e-07
-1.90081802086e-07
2.62309293668e-07
-1.79936979066e-07
2.63791834752e-07
-1.45070473229e-07
2.74489637249e-07
-1.3552681357e-07
3.06753412049e-07
-1.50296191098e-07
3.5577521264e-07
-1.79977841016e-07
4.16126958116e-07
-2.14525635015e-07
4.7209117702e-07
-2.36655132483e-07
5.13993211922e-07
-2.468660403e-07
5.52712505556e-07
-2.60456588129e-07
5.98229888119e-07
-2.80133147779e-07
6.45474310811e-07
-2.92510395777e-07
6.92450985268e-07
-2.96616055309e-07
7.40545965166e-07
-2.97272428494e-07
7.89833352604e-07
-2.96827599571e-07
8.39193500938e-07
-2.96340269613e-07
8.87082560376e-07
-2.95813168422e-07
9.3822799563e-07
-3.00207668015e-07
9.889979857e-07
-3.01728171028e-07
1.04060375664e-06
-3.02595827581e-07
1.08827659795e-06
-2.99509106531e-07
1.13983206115e-06
-3.02527099606e-07
1.19523719016e-06
-3.09218934058e-07
1.2528628793e-06
-3.17753049083e-07
1.32063148432e-06
-3.34854148739e-07
1.38834460879e-06
-3.45035075168e-07
1.44928718373e-06
-3.45494161254e-07
1.505975014e-06
-3.38699780719e-07
1.56028182789e-06
-3.278133136e-07
1.61239327136e-06
-3.14305707674e-07
1.66245153656e-06
-2.98011258019e-07
1.71080822226e-06
-2.7880751659e-07
1.75689570802e-06
-2.58313793707e-07
1.79943435166e-06
-2.38571251926e-07
1.83774142474e-06
-2.19966595702e-07
1.87191495283e-06
-2.01626435662e-07
1.9022386378e-06
-1.82744030185e-07
1.9288777463e-06
-1.62974355172e-07
1.95185486755e-06
-1.42225375799e-07
1.97112324515e-06
-1.20475210742e-07
1.98655990059e-06
-9.77689049165e-08
1.99780349491e-06
-7.42003167997e-08
2.00441383544e-06
-4.96674783802e-08
2.0065555991e-06
-2.3924293434e-08
2.00485801044e-06
2.6578209723e-09
1.99867581881e-06
2.91813616846e-08
1.98566942314e-06
5.62162677779e-08
1.96262678394e-06
8.63415157516e-08
1.92519035464e-06
1.23147133144e-07
1.86729569954e-06
1.71726752844e-07
1.7827908662e-06
2.39512789222e-07
1.67130166227e-06
3.34808130078e-07
1.54896315872e-06
4.56626909041e-07
1.45095948152e-06
5.74800296541e-07
1.35362865781e-06
7.03821286803e-07
1.24194100264e-06
7.48811088565e-07
1.13921215521e-06
6.65481308291e-07
1.02049673006e-06
6.1553369328e-07
9.04189582058e-07
5.81158568987e-07
8.09031180897e-07
5.7440973101e-07
7.1755070124e-07
6.30894084957e-07
6.1417000152e-07
6.94753182014e-07
5.19889326193e-07
6.71961818063e-07
4.1675548409e-07
6.42482388493e-07
3.09946008648e-07
6.27639597308e-07
2.1170040909e-07
6.05377222996e-07
1.47346391863e-07
5.43616354037e-07
9.65347042114e-08
4.37489020872e-07
5.11566544705e-08
3.7454448376e-07
2.17724514472e-08
4.2348057279e-07
4.21159703953e-07
9.76108699956e-09
-1.41523714289e-07
3.85485138245e-08
-1.78358014133e-07
5.03751629376e-08
-2.06127922191e-07
4.23614774572e-08
-1.71636251374e-07
6.2402438097e-08
-1.29861817568e-07
1.12880987533e-07
-1.86655057476e-07
1.37406951814e-07
-2.12560915607e-07
1.58076739434e-07
-2.15578545112e-07
1.80363160698e-07
-2.1644188688e-07
2.11078831128e-07
-2.20512579642e-07
2.15347052183e-07
-1.84011646807e-07
2.21632930045e-07
-1.51145297009e-07
2.51461466871e-07
-1.6506508422e-07
2.91959640247e-07
-1.90428691456e-07
3.48787793908e-07
-2.36420874023e-07
4.04865174759e-07
-2.70276664959e-07
4.45010938061e-07
-2.76540032403e-07
4.81835633795e-07
-2.83463472899e-07
5.28743591255e-07
-3.07153560432e-07
5.77082932518e-07
-3.28283633663e-07
6.23248941972e-07
-3.38507629741e-07
6.70086169059e-07
-3.43304180207e-07
7.18506554238e-07
-3.45549118779e-07
7.66335862042e-07
-3.44537809502e-07
8.13690830203e-07
-3.43597342739e-07
8.62549735145e-07
-3.44583421117e-07
9.12025904048e-07
-3.49609393218e-07
9.63997532924e-07
-3.53638121198e-07
1.01341333336e-06
-3.51966986612e-07
1.06248428644e-06
-3.4854274041e-07
1.12013351306e-06
-3.60132510012e-07
1.18060248314e-06
-3.69643842557e-07
1.24816691125e-06
-3.85266473044e-07
1.31690572783e-06
-4.03546548883e-07
1.38414227678e-06
-4.12240721089e-07
1.44512774233e-06
-4.06464864583e-07
1.50224230044e-06
-3.95811689444e-07
1.55750441275e-06
-3.83083779181e-07
1.61108970597e-06
-3.67907408109e-07
1.66274807107e-06
-3.49695354248e-07
1.71238184831e-06
-3.28476972371e-07
1.75946501384e-06
-3.05446811489e-07
1.80300871199e-06
-2.82179664651e-07
1.84231408297e-06
-2.59353300197e-07
1.87726165314e-06
-2.36669379324e-07
1.90799214e-06
-2.13584316272e-07
1.93461986922e-06
-1.89724047198e-07
1.95715965228e-06
-1.64899681093e-07
1.97558033387e-06
-1.39041362583e-07
1.98981065443e-06
-1.12155303165e-07
1.99969232975e-06
-8.42396804651e-08
2.0050726235e-06
-5.52005243964e-08
2.00595940358e-06
-2.49396496031e-08
2.00197848388e-06
6.54198569351e-09
1.99127028334e-06
3.98299587797e-08
1.97029266628e-06
7.71482002884e-08
1.934608117e-06
1.22014339835e-07
1.87964936039e-06
1.78120903227e-07
1.80226694843e-06
2.49164246008e-07
1.70364232288e-06
3.38227525673e-07
1.59511392355e-06
4.43449726509e-07
1.49554912381e-06
5.56361476434e-07
1.39461538307e-06
6.75882395454e-07
1.28871159143e-06
8.09944686689e-07
1.14847079057e-06
8.89120028241e-07
1.0362965984e-06
7.77826462254e-07
9.47005434772e-07
7.04908606111e-07
8.4491916546e-07
6.83363502216e-07
7.38768465177e-07
6.80700469172e-07
6.36298206268e-07
7.33537710018e-07
5.49277331266e-07
7.81866919015e-07
4.57849421412e-07
7.63508365464e-07
3.45169140535e-07
7.55236739208e-07
2.36500941188e-07
7.3634844105e-07
1.51081338329e-07
6.90847523287e-07
1.07311598237e-07
5.87400862442e-07
5.44472820044e-08
4.90379882532e-07
1.35589746564e-08
4.15565037603e-07
6.7369807856e-09
4.3017364053e-07
4.28001259028e-07
1.73740560416e-08
-1.58204502661e-07
3.91894154806e-08
-1.99787411867e-07
4.43550808532e-08
-2.10850197665e-07
2.83656505434e-08
-1.55302339492e-07
6.36625995992e-08
-1.64686705999e-07
1.00028976271e-07
-2.2241121214e-07
1.18677859019e-07
-2.30715292972e-07
1.38649104282e-07
-2.3509822667e-07
1.48007011001e-07
-2.25516334364e-07
1.66191828321e-07
-2.38383380344e-07
1.6511931446e-07
-1.82719855834e-07
1.95351917694e-07
-1.81072485921e-07
2.29232548712e-07
-1.98576281987e-07
2.78846960745e-07
-2.39650156036e-07
3.33565182945e-07
-2.90755788977e-07
3.73560459648e-07
-3.09956373137e-07
4.06699257475e-07
-3.09432295383e-07
4.52624402953e-07
-3.29162704143e-07
5.02911029778e-07
-3.57231628119e-07
5.49512928114e-07
-3.74703434444e-07
5.951067634e-07
-3.83940232116e-07
6.41661845021e-07
-3.89701749206e-07
6.9105997159e-07
-3.94819082841e-07
7.40495108472e-07
-3.93871975473e-07
7.86052216747e-07
-3.89051169817e-07
8.37789455882e-07
-3.96241836793e-07
8.86413947912e-07
-3.98165375225e-07
9.34362611028e-07
-4.01529684321e-07
9.83710337787e-07
-4.01264927941e-07
1.04879506567e-06
-4.1357592328e-07
1.10888070129e-06
-4.20169711578e-07
1.16921297484e-06
-4.29918104908e-07
1.2397526156e-06
-4.55755112478e-07
1.31251096072e-06
-4.76265222325e-07
1.37682253598e-06
-4.76527667875e-07
1.43773876795e-06
-4.67371526049e-07
1.49678509603e-06
-4.54861017947e-07
1.55411022715e-06
-4.40422967435e-07
1.60966928335e-06
-4.2349029214e-07
1.66321764638e-06
-4.03277555544e-07
1.71445124454e-06
-3.79756132764e-07
1.76283809166e-06
-3.53893860955e-07
1.80757864615e-06
-3.26997466745e-07
1.84799547018e-06
-2.99864546261e-07
1.88379741188e-06
-2.72583199299e-07
1.91494640517e-06
-2.44861731406e-07
1.94144019009e-06
-2.16362586869e-07
1.96325503077e-06
-1.86875387735e-07
1.98039908365e-06
-1.56360766506e-07
1.99292657743e-06
-1.24868015673e-07
2.00088055995e-06
-9.2381972218e-08
2.0042253003e-06
-5.87182491031e-08
2.0025831851e-06
-2.34473885811e-08
1.99451833199e-06
1.45108240606e-08
1.97673750158e-06
5.75125091804e-08
1.94452079689e-06
1.09301195715e-07
1.89381775403e-06
1.72677677059e-07
1.82365053088e-06
2.48258893968e-07
1.73619908889e-06
3.36635067913e-07
1.63632084439e-06
4.3816685395e-07
1.53582293841e-06
5.44067905171e-07
1.4430740689e-06
6.49237154198e-07
1.35609051812e-06
7.63096351186e-07
1.28330216549e-06
8.82825877944e-07
1.16171803156e-06
1.01096693185e-06
9.70370984756e-07
9.69259500589e-07
8.44057689561e-07
8.31329620938e-07
7.43007265227e-07
7.8448509578e-07
6.44077986404e-07
7.79656024539e-07
5.69491784879e-07
8.08206739839e-07
5.01325108461e-07
8.50203159069e-07
3.96754027183e-07
8.68143623753e-07
2.73528100737e-07
8.78535118359e-07
1.63814218334e-07
8.46139799779e-07
9.38748424649e-08
7.60824295414e-07
4.52945747914e-08
6.36037061011e-07
-7.38702765042e-10
5.36466783516e-07
-3.52332232955e-08
4.50016866317e-07
-2.3853649131e-08
4.19030347698e-07
4.04195989753e-07
2.01706236013e-08
-1.78298360772e-07
3.31795542176e-08
-2.12438692884e-07
2.92205985511e-08
-2.06613416026e-07
3.18435435735e-08
-1.57553119824e-07
6.79557630712e-08
-2.00319251684e-07
8.21337315656e-08
-2.36110137165e-07
9.80927563697e-08
-2.46289505495e-07
1.16675357554e-07
-2.53352423381e-07
1.22484463731e-07
-2.30998630183e-07
1.33364006295e-07
-2.48992785788e-07
1.4664703504e-07
-1.95689017594e-07
1.74307620742e-07
-2.08373814113e-07
2.09687610468e-07
-2.33535738447e-07
2.62004219232e-07
-2.91532129944e-07
3.07848225792e-07
-3.36249821295e-07
3.3771037686e-07
-3.39545170914e-07
3.74164889033e-07
-3.45638587114e-07
4.21919878953e-07
-3.76684074522e-07
4.70370157077e-07
-4.05475673335e-07
5.16984479703e-07
-4.21129927711e-07
5.63127540318e-07
-4.29901526619e-07
6.08442556897e-07
-4.34873918416e-07
6.54980221736e-07
-4.41253005483e-07
7.0334650195e-07
-4.42134657552e-07
7.48753550493e-07
-4.34379814648e-07
7.98860869928e-07
-4.46273720224e-07
8.51885329062e-07
-4.51117786321e-07
9.08019496691e-07
-4.57610373507e-07
9.6681889614e-07
-4.60015952773e-07
1.0250045604e-06
-4.71704193511e-07
1.08800961027e-06
-4.83106379108e-07
1.16378897551e-06
-5.05633356336e-07
1.23625331776e-06
-5.2816519586e-07
1.30203445908e-06
-5.42010070345e-07
1.36589435297e-06
-5.40370872752e-07
1.428666442e-06
-5.30140684317e-07
1.49018363666e-06
-5.16386821515e-07
1.55004099178e-06
-5.00299364361e-07
1.60799214487e-06
-4.8147178912e-07
1.66378341184e-06
-4.59111025881e-07
1.71701248663e-06
-4.33041751295e-07
1.76709492756e-06
-4.04049132054e-07
1.8133177292e-06
-3.73310743002e-07
1.85502915129e-06
-3.41685738837e-07
1.89178902764e-06
-3.09472625363e-07
1.92333923369e-06
-2.76562032943e-07
1.949511893e-06
-2.42706711252e-07
1.97022198562e-06
-2.07776273132e-07
1.98552627811e-06
-1.71873823105e-07
1.99563345572e-06
-1.35195543625e-07
2.00078743968e-06
-9.77473532429e-08
2.00097299921e-06
-5.91049662123e-08
1.99538480193e-06
-1.79884691873e-08
1.98145979915e-06
2.8303945535e-08
1.9545808048e-06
8.42976299951e-08
1.90929489034e-06
1.54489702755e-07
1.84458032966e-06
2.37259000272e-07
1.76606246032e-06
3.26722016306e-07
1.6772984291e-06
4.25381649408e-07
1.57514926242e-06
5.40378218112e-07
1.47117864076e-06
6.48148398645e-07
1.38293424013e-06
7.37678538797e-07
1.31397906956e-06
8.32168843299e-07
1.25852880572e-06
9.38562073355e-07
1.20475100676e-06
1.06486000695e-06
1.01273489582e-06
1.16143621109e-06
7.5894727498e-07
1.08509954773e-06
6.47050330891e-07
8.96167704598e-07
5.71574484956e-07
8.55046512603e-07
5.31482123101e-07
8.48315361254e-07
4.62583021814e-07
9.19121129347e-07
3.3988250997e-07
9.90976284826e-07
2.01242439147e-07
1.01728780826e-06
8.49738068721e-08
9.62498229236e-07
1.52393810737e-08
8.30677043813e-07
-4.39310541393e-08
6.95302085717e-07
-8.28474765257e-08
5.75464676547e-07
-9.57598827855e-08
4.63140620767e-07
-6.16234733707e-08
3.84975524916e-07
3.42711748139e-07
2.05203416459e-08
-1.98004022104e-07
3.03935558082e-08
-2.2180808917e-07
1.96029784118e-08
-1.95412690241e-07
3.22062279526e-08
-1.69815720168e-07
5.94256587938e-08
-2.27115201795e-07
6.42128553591e-08
-2.40562980311e-07
7.5536545628e-08
-2.57220380893e-07
8.56165351809e-08
-2.63163126373e-07
1.00784521946e-07
-2.45884617359e-07
9.72545432161e-08
-2.45124478003e-07
1.20653530583e-07
-2.18749378508e-07
1.51358823953e-07
-2.38665907259e-07
1.86675957439e-07
-2.68449014604e-07
2.31846436194e-07
-3.36299482468e-07
2.66954256426e-07
-3.71011902183e-07
2.91867707867e-07
-3.64187310155e-07
3.34533275607e-07
-3.88049320668e-07
3.83809112753e-07
-4.25722314868e-07
4.31537286464e-07
-4.52989430389e-07
4.79214163343e-07
-4.68613175336e-07
5.27123576161e-07
-4.77659968325e-07
5.73895748841e-07
-4.81519603764e-07
6.17337034963e-07
-4.84564650909e-07
6.63982681633e-07
-4.88690140484e-07
7.1510091938e-07
-4.85421690604e-07
7.62320856825e-07
-4.9341006598e-07
8.13358931586e-07
-5.02104092719e-07
8.63184756473e-07
-5.07387793757e-07
9.29401503502e-07
-5.26171195154e-07
9.97761770933e-07
-5.40000563309e-07
1.0703321961e-06
-5.55601465954e-07
1.1433467623e-06
-5.78574276462e-07
1.21973894755e-06
-6.04501756632e-07
1.28827735719e-06
-6.10519816997e-07
1.35340762069e-06
-6.05489453724e-07
1.41825491206e-06
-5.94988992109e-07
1.48250378177e-06
-5.80648011156e-07
1.5452653991e-06
-5.63086357296e-07
1.6060199632e-06
-5.42264534481e-07
1.66444233115e-06
-5.17586276804e-07
1.72008350687e-06
-4.88751035052e-07
1.77230678392e-06
-4.56357718442e-07
1.82039573095e-06
-4.21504724226e-07
1.8636734981e-06
-3.85090563931e-07
1.90155218084e-06
-3.47502114595e-07
1.93351926169e-06
-3.08704767086e-07
1.95916508002e-06
-2.68552204162e-07
1.97829403184e-06
-2.27126222056e-07
1.99101545816e-06
-1.84835848781e-07
1.99772338099e-06
-1.42138170657e-07
1.99886864342e-06
-9.91416534983e-08
1.99456727635e-06
-5.49729174782e-08
1.98366204916e-06
-7.23147947492e-09
1.96283855661e-06
4.89912135056e-08
1.92636408928e-06
1.20590245546e-07
1.86805008099e-06
2.12609863265e-07
1.79219764308e-06
3.13032583485e-07
1.71251813893e-06
4.06174640814e-07
1.62610140177e-06
5.11726323416e-07
1.5066649529e-06
6.59876624661e-07
1.382315582e-06
7.72752938355e-07
1.29725956626e-06
8.23016067267e-07
1.24430507148e-06
8.85515560381e-07
1.21201351143e-06
9.7110707012e-07
1.19432831589e-06
1.08289376011e-06
1.13006167172e-06
1.22581045783e-06
8.51337123752e-07
1.36365507606e-06
5.59745298591e-07
1.1874792039e-06
4.85964627217e-07
9.28551548392e-07
5.11007173967e-07
8.23122022645e-07
4.39466223602e-07
9.90769736533e-07
2.91437152053e-07
1.13912043151e-06
1.26358677033e-07
1.18253247347e-06
-1.12045105412e-08
1.10025183013e-06
-9.20073385301e-08
9.11644244864e-07
-1.55555005053e-07
7.59002789346e-07
-1.8604191571e-07
6.06147070553e-07
-1.62548725843e-07
4.39754646397e-07
-9.55761522892e-08
3.18266981839e-07
2.47271942701e-07
1.5990378325e-08
-2.14014859123e-07
2.32195252261e-08
-2.28840150645e-07
1.60233231191e-08