/*--------------------------------*- C++ -*----------------------------------*\
| =========                 |                                                 |
| \\      /  F ield         | OpenFOAM: The Open Source CFD Toolbox           |
|  \\    /   O peration     | Version:  v1806                                 |
|   \\  /    A nd           | Web:      www.OpenFOAM.com                      |
|    \\/     M anipulation  |                                                 |
\*---------------------------------------------------------------------------*/
FoamFile
{
    version     2.0;
    format      ascii;
    class       volScalarField;
    location    "509";
    object      p;
}
// * * * * * * * * * * * * * * * * * * * * * * * * * * * * * * * * * * * * * //

dimensions      [0 2 -2 0 0 0 0];


internalField   nonuniform List<scalar> 
6400
(
0.153405804445
0.153408363302
0.153415637749
0.153429767137
0.153450527428
0.153477794656
0.153511587095
0.153552936571
0.153602431775
0.153661035592
0.1537342152
0.153824850195
0.153930206507
0.154050285159
0.154186899823
0.154342317327
0.154517783753
0.15471305664
0.15492634595
0.155152749406
0.155386648735
0.155628866824
0.155885880576
0.156164761787
0.156470117526
0.156801841002
0.157156581491
0.157531863426
0.15792738158
0.158343817519
0.158781688593
0.159239258982
0.159710692724
0.160190095384
0.160674968522
0.161162174135
0.161651524401
0.162149545104
0.162655026156
0.163158241823
0.163660240117
0.164174511421
0.164708098505
0.165252946268
0.165798667365
0.166338462949
0.166867165651
0.167381077062
0.167876900792
0.168351839434
0.168803814861
0.169228195802
0.169617698439
0.169962986065
0.170263470822
0.170526010524
0.170748476575
0.170923536378
0.17105118125
0.171140447161
0.171198577212
0.171231064812
0.171244126347
0.171243526496
0.171229136055
0.171190902713
0.171126315855
0.171048765414
0.170973550936
0.17090606285
0.170845667705
0.170789721822
0.170736441974
0.170688468575
0.17064539968
0.170608081726
0.17057724019
0.170557135399
0.170544319103
0.170538936322
0.153402029463
0.153404735455
0.153411291845
0.15342510065
0.153447255552
0.153475874612
0.153510110176
0.153549901967
0.153597590903
0.153656071904
0.153728917945
0.153818480196
0.153924065019
0.154045032029
0.154181840642
0.154335958586
0.154510721053
0.154706651713
0.154921329073
0.155148504009
0.155380552352
0.155620589915
0.155876841947
0.156155498181
0.1564611944
0.156793664691
0.157148648174
0.157524469912
0.15792093346
0.158338125099
0.158776016883
0.159233979463
0.15970648522
0.160185993828
0.160671075944
0.161158582184
0.161647708309
0.162146221799
0.162652864606
0.16315662246
0.163657085691
0.164171470994
0.164709104609
0.165257014168
0.16580429108
0.166345780722
0.166876184277
0.167392140814
0.167889845804
0.168365032287
0.168815688877
0.169241335114
0.16963679105
0.169984295093
0.170286169239
0.170551673419
0.170772128226
0.170943382208
0.171069711671
0.171157290349
0.17121229304
0.171243541684
0.171255409131
0.171254137596
0.171239339081
0.171200723159
0.171133442315
0.171052694953
0.170974793551
0.170904969101
0.17084274562
0.170785156265
0.170730111685
0.170680315538
0.170637127076
0.170600659558
0.170571952472
0.170552434652
0.170539991626
0.170535843846
0.15339148698
0.1533959935
0.153401859793
0.153414528073
0.153435960526
0.153467981124
0.153505229943
0.153543832549
0.153589047427
0.153646125245
0.15371820601
0.153807163409
0.153912898948
0.154034522981
0.154171371397
0.154322209797
0.154494752174
0.154695718891
0.154913556853
0.155139533673
0.155367480207
0.155602002289
0.155856876215
0.156137758644
0.156444196132
0.156776319544
0.157132455529
0.157510064985
0.157908060587
0.158326535407
0.158765219254
0.159224199226
0.159698999923
0.160178115535
0.160661844506
0.161151429415
0.161640598577
0.162137918581
0.162645721045
0.163152592393
0.163659645919
0.164178928993
0.164716031741
0.165263623403
0.165812452969
0.166356241811
0.166889992455
0.167409667403
0.167911373516
0.16839148581
0.168847281068
0.169275394542
0.169668782748
0.170019774887
0.170329711694
0.170596577221
0.170814079501
0.170982585983
0.17110613595
0.171190415755
0.171242618603
0.171270488235
0.171279398901
0.171277955568
0.171262057831
0.171219156632
0.171148675716
0.171063506356
0.17097876621
0.170902615791
0.170835134042
0.170773471446
0.170717071583
0.170667429907
0.170624236908
0.170588561284
0.170561774057
0.170543432863
0.170532032009
0.170527953832
0.153376666425
0.153381237063
0.153386073681
0.153397710559
0.153416564355
0.153448437383
0.153495995763
0.153534630749
0.153576367505
0.153630995096
0.153701837599
0.15379041223
0.153896567029
0.154017978373
0.154154767732
0.15431021727
0.154487201775
0.154685647288
0.154895696363
0.155110481029
0.155333908861
0.155571711187
0.15582879038
0.15611000826
0.156417382875
0.156750860094
0.157108802281
0.157488533654
0.15788874557
0.158308951228
0.158749741008
0.159210287813
0.1596866328
0.16016945129
0.160650476236
0.161136586015
0.161629645261
0.162127126934
0.162632215889
0.163142939654
0.16365856286
0.164184686463
0.164724696033
0.165274219584
0.165825963931
0.166373667054
0.166912175393
0.167437140598
0.167944573038
0.168430752924
0.168892180348
0.169324577491
0.169722059805
0.170079300843
0.17039378632
0.170661253795
0.170877663031
0.171043738889
0.171163737429
0.171243838798
0.171291603155
0.171314773741
0.171320895528
0.171318642116
0.171300547008
0.171253613236
0.171174651392
0.171078694529
0.170982628994
0.170896662732
0.170822680675
0.170758204864
0.170700800113
0.170648399827
0.170602952541
0.170568590137
0.170544790478
0.170526839241
0.170514537204
0.170509518198
0.153353526114
0.153354309152
0.153360267246
0.153372200896
0.153393154874
0.153423158794
0.1534664527
0.153509116506
0.15355364104
0.153608844185
0.153678748502
0.153767161834
0.153874237318
0.15400086448
0.154145014526
0.154301446009
0.154472289619
0.154658331969
0.154857581854
0.155069321427
0.155293835323
0.155532692827
0.155790954825
0.156073492018
0.156382194477
0.156717376233
0.157077210667
0.15745961461
0.15786261183
0.158285832925
0.158728674062
0.159193049951
0.159673995108
0.16015405931
0.160634046632
0.161118481797
0.1616084387
0.162107682864
0.162616401638
0.163132787827
0.163656383957
0.164189856344
0.164734843998
0.16528837151
0.165844672287
0.166397844954
0.166942651199
0.167474539343
0.16798939947
0.168483339896
0.168952374423
0.169391850278
0.169796334412
0.170160661027
0.17048022603
0.170749806097
0.170966065441
0.171130213929
0.171246960306
0.171323068176
0.171366511654
0.171385407296
0.171387465101
0.17137999764
0.17135354102
0.171299003285
0.171210161692
0.171100119186
0.170987996359
0.170888427619
0.170806304885
0.1707372363
0.170673661387
0.170615214274
0.170569272055
0.170537248875
0.170514207268
0.170493911303
0.170481623308
0.170477515153
0.153311018823
0.153310853175
0.153320968338
0.153333323753
0.153356473464
0.153388501782
0.153428766392
0.153472173777
0.153520712296
0.153577888378
0.153646464368
0.153735476774
0.153850957141
0.153985647099
0.15412929021
0.154280132779
0.154441619003
0.154618872364
0.154813499065
0.155023140583
0.15524552298
0.155484121125
0.155743748313
0.156028149429
0.156338732989
0.15667528683
0.157037835796
0.157423021271
0.157829945763
0.158256724343
0.158704267102
0.159170935009
0.159651469143
0.160135880356
0.160611815741
0.161090725245
0.161581112634
0.162084085961
0.162598064096
0.163121204886
0.163652953511
0.16419445651
0.164746194881
0.165305763523
0.165868421885
0.166428722848
0.166981466237
0.16752199801
0.168046125782
0.168549821951
0.169028819753
0.169478235356
0.169892537835
0.170265894036
0.170592250308
0.170865888509
0.171083975652
0.171248140045
0.171363429362
0.171436919239
0.171476572169
0.171490556879
0.171485978323
0.171466139146
0.171427986266
0.171358224038
0.171252494263
0.171124384976
0.170992655272
0.170876599346
0.170783119868
0.170702685393
0.170627255937
0.170564754512
0.170520349432
0.170490347111
0.17046602705
0.170445776036
0.170434854323
0.170430341622
0.153246151047
0.153250987208
0.153267925221
0.153286306033
0.153306142538
0.153338462668
0.153380627309
0.15342572737
0.153477288619
0.153536862461
0.153609216425
0.153701462508
0.153824192355
0.153958463702
0.154097879743
0.15424106299
0.154396328565
0.154571302873
0.15476415549
0.154968728706
0.155188066541
0.15542693511
0.155687689864
0.155973323473
0.156285961362
0.156626439998
0.156989920003
0.157378676483
0.157790157667
0.158224269186
0.158676036909
0.159142942054
0.159624339904
0.16010331971
0.160577730989
0.16105621408
0.161549119204
0.162056916317
0.162577151878
0.163107792063
0.163648149855
0.164198511711
0.164758577225
0.165326108441
0.165896989179
0.166466184206
0.167028623182
0.167579667496
0.168115126615
0.168630920216
0.169122617321
0.169585076818
0.170012311738
0.170397576108
0.170733794645
0.171015014596
0.171238719556
0.171406646812
0.171523531238
0.17159573575
0.171630526761
0.171635856978
0.171618522115
0.171580148528
0.171529137961
0.171438896641
0.171305409764
0.171151496764
0.170996134609
0.170858612343
0.170744433373
0.170643519855
0.170556262254
0.170493190481
0.170451925809
0.170424085086
0.170400072163
0.170382982245
0.170374921841
0.170370607317
0.153169704826
0.153179300844
0.153198831368
0.153225512344
0.153247355616
0.153280871328
0.15332181597
0.153369215999
0.153424683811
0.153482364259
0.153562127985
0.153665879613
0.153787001987
0.153918265768
0.154051135774
0.154187346904
0.154341669716
0.154517288037
0.154705319658
0.154904885922
0.15512182763
0.15536051874
0.155622269457
0.155910304009
0.156225963964
0.156569100381
0.156936816567
0.157325042
0.157744342535
0.158188396879
0.158641546715
0.159105043115
0.159584425313
0.16006019063
0.160532343175
0.161014969924
0.1615128221
0.162026221701
0.162553309596
0.163092125513
0.163641755317
0.164201928819
0.164771815949
0.165349143058
0.165930131772
0.166510077814
0.167084111143
0.167647726341
0.168196837339
0.168727402251
0.169234907054
0.169713941936
0.170157947182
0.170559327529
0.170910321117
0.171204840869
0.171440295069
0.171617571491
0.171739396237
0.171809928184
0.17183554738
0.171824625036
0.171784703917
0.171722452173
0.171648174548
0.171541837201
0.17137534591
0.171184000383
0.170994216611
0.170823085891
0.170676057458
0.170549799077
0.170454524104
0.170394196013
0.170359485618
0.170337224136
0.170320273419
0.170308730345
0.170304908342
0.170302888874
0.153085741666
0.153098255931
0.153118151829
0.153140801319
0.153168817417
0.153209945729
0.153250921752
0.153299665203
0.153361909645
0.153424334726
0.153501788076
0.15361349728
0.153737026183
0.153863022731
0.153990243937
0.154125936187
0.154279456673
0.154452139872
0.154635633187
0.154832279923
0.155047384696
0.155284883271
0.155546024213
0.155835341388
0.156158575425
0.156502928965
0.156875225399
0.157271684867
0.15769227864
0.158137106584
0.158596061245
0.159065709165
0.159532583312
0.160002725992
0.160479078175
0.160967699864
0.161471685868
0.161991525863
0.162526092536
0.163073765129
0.163633473473
0.164204519917
0.164785685191
0.165374583792
0.16596758371
0.166560228886
0.167147908966
0.167726362624
0.168291708223
0.168840041398
0.169366876768
0.169866631661
0.170332308118
0.170755743653
0.171128803652
0.171445148875
0.171701175512
0.171894931563
0.172024255646
0.172090481804
0.172101083853
0.172067074872
0.17199772342
0.171900137009
0.171782010836
0.171646605802
0.171459455003
0.17122004219
0.17097958187
0.170757236786
0.170563710155
0.170410564272
0.170310989769
0.170259033456
0.17023883163
0.170232751692
0.170230438641
0.170227034219
0.170227098523
0.170227761482
0.152992989738
0.153007465205
0.153030641204
0.15305249868
0.153082601223
0.153124174955
0.153166780709
0.153215567681
0.153277370416
0.153354501422
0.153436319654
0.153547948571
0.153672037095
0.153794124278
0.153915806382
0.154053808835
0.154210172426
0.154377683969
0.15455570254
0.15474982099
0.154964288109
0.155201602831
0.155462475692
0.155749968873
0.156079274777
0.156432099464
0.156800198683
0.157204278772
0.157629858166
0.15807933041
0.158540875098
0.159007569372
0.159472700093
0.159938900451
0.16041872912
0.160914035062
0.161425115033
0.161952282947
0.162495029578
0.163052242343
0.163622892775
0.164205964679
0.164799883398
0.165402101962
0.166009041054
0.166616440194
0.167219983648
0.167815749061
0.168400159709
0.168969564303
0.169519682139
0.170045031153
0.170538576671
0.170992105835
0.171397456475
0.171747575739
0.172035956192
0.172254503204
0.172392672329
0.172451990287
0.17244397026
0.17238217631
0.172274670385
0.172127129934
0.171947081643
0.17174588776
0.171525775998
0.171257468378
0.170940595454
0.170641057471
0.170388092307
0.170207079275
0.170107611344
0.170074969235
0.170086025209
0.170114501966
0.170134674314
0.170138402434
0.170139675544
0.170140422515
0.152887474867
0.152901297167
0.152926386292
0.152952730282
0.152990197387
0.153026700371
0.15306962107
0.153120351017
0.153175081464
0.153259631316
0.15335370119
0.153465673639
0.153589694099
0.153711675338
0.153832173835
0.153970265993
0.15412760711
0.15429170724
0.154465525992
0.154656232645
0.154869546203
0.155108164918
0.155373434007
0.155660327025
0.155983976657
0.156350045005
0.15672627708
0.15712953637
0.157556497394
0.157999484904
0.15846858032
0.158937391427
0.159399521142
0.159866930683
0.160351614394
0.160853779857
0.161372546725
0.161907904257
0.16245962794
0.163027085618
0.163609534563
0.164205816019
0.164813998784
0.165431303938
0.166054148116
0.166678462481
0.167300266502
0.167916028557
0.168522547047
0.169116562931
0.169694276548
0.170250783956
0.170779754441
0.171273805595
0.171725173521
0.172124962975
0.172459829415
0.172713070834
0.172864659357
0.172920951466
0.172895675568
0.172801702707
0.172644598212
0.172431002513
0.172173310726
0.171879036225
0.171562451289
0.171235096848
0.170866520585
0.170450139054
0.170119074992
0.169905748617
0.169814643324
0.16982307272
0.169897596663
0.169991073528
0.17004332663
0.170042574484
0.170039336849
0.170036288201
0.152766156015
0.152776975848
0.152796450946
0.152830317983
0.15287720993
0.152913609718
0.152957306733
0.153013198051
0.153066339171
0.15314733649
0.153250711696
0.153365325806
0.153488524129
0.15361184051
0.153738158892
0.153877911947
0.154033294099
0.15419396361
0.154364980143
0.154552364411
0.154761769494
0.154997841475
0.155271707054
0.155569821122
0.155887519363
0.156253058596
0.156637727117
0.157037630862
0.1574749728
0.157923330718
0.158383315939
0.158846630711
0.15930991794
0.159785193718
0.160276825569
0.160786279588
0.16131328084
0.16185767053
0.162419299775
0.162997800962
0.163592860846
0.164203509523
0.164827509877
0.165461708816
0.166102475391
0.166745983209
0.167388631077
0.168027278128
0.168659108053
0.169281384473
0.169891138531
0.17048476919
0.171057888217
0.171605361958
0.172120336435
0.172589011355
0.172984319545
0.173291977811
0.173475694715
0.173545393583
0.173509123792
0.173375120216
0.173151707954
0.172851186122
0.172499895521
0.172095442555
0.171625430449
0.171160757717
0.170667565709
0.170134237798
0.16970160287
0.169446735531
0.169378051743
0.169468752429
0.169667763892
0.169889930487
0.169987833692
0.169940509365
0.169924716916
0.169914419732
0.152628721057
0.152636848307
0.152648091686
0.152686110658
0.15273351404
0.152776617083
0.15282369291
0.152885310132
0.152944788324
0.153024334875
0.153131377997
0.15324752316
0.153369405123
0.153490506727
0.153624543567
0.153772501514
0.153926230208
0.154083910793
0.154253161268
0.15443861403
0.154643879187
0.154873211138
0.155146495707
0.155464729672
0.155788481126
0.156141706535
0.156537956127
0.156943527754
0.157371558609
0.157823975825
0.158285174351
0.158745872314
0.159210610536
0.159692897981
0.160192731389
0.160710510453
0.161246431078
0.161800561053
0.162373111722
0.162963793259
0.163572417263
0.164198460843
0.164839743562
0.165492697961
0.166153494679
0.166818598183
0.167484865618
0.168149488635
0.168809920619
0.169463981154
0.170109915305
0.170746420998
0.171372907445
0.171988638862
0.172587984597
0.173145949702
0.173610385943
0.174028713776
0.174306114356
0.174430373955
0.174392621428
0.174200895914
0.173885435407
0.173465812775
0.173018168529
0.172504397052
0.17178918863
0.17104672074
0.170343895358
0.169635054667
0.169089787905
0.168768386937
0.168744725274
0.168974144061
0.169401097041
0.169893331944
0.170058197793
0.169811408175
0.169786176265
0.16976699839
0.15247614827
0.152485510874
0.1525013716
0.15252925379
0.152571353724
0.152618807002
0.152670270955
0.1527346436
0.1528047865
0.152885924052
0.152995542218
0.153112910924
0.153234632208
0.153354313362
0.153489440063
0.15364501199
0.153801344728
0.153959461056
0.15412840592
0.154313180401
0.154516258311
0.154739834802
0.155007541288
0.15533608401
0.155674883427
0.15602486671
0.15642407281
0.156837754709
0.157260575549
0.157709641318
0.158164459461
0.158624306835
0.159098510338
0.159589639286
0.160098257213
0.160625186171
0.16117108636
0.161735855181
0.162319969821
0.162923888434
0.163547451217
0.164190146351
0.164850067847
0.165523531307
0.166206507448
0.166895755918
0.167588649231
0.168282549496
0.168974857793
0.16966379741
0.170349094769
0.171032943797
0.171720968192
0.172419724434
0.173125140747
0.173794471544
0.174338900043
0.175097478641
0.175544826666
0.175728965689
0.175618125421
0.175211779007
0.174600678375
0.173905983932
0.173310961283
0.17280406282
0.172129030421
0.170984309391
0.169829571904
0.1688597323
0.168022093684
0.167515586128
0.167589936551
0.168103540945
0.168969679605
0.170176413317
0.170443038305
0.169564606664
0.169611345335
0.16957771842
0.152304622559
0.15231522055
0.152340039909
0.152358672007
0.152394564274
0.152443118159
0.152498070893
0.152566629683
0.152649604317
0.152731701327
0.152842692865
0.152961518119
0.153084380008
0.153205680246
0.15334163735
0.153500152301
0.153659233439
0.153819735185
0.153989813582
0.154174569771
0.154376942161
0.154598300305
0.154856955982
0.155181883232
0.155543885662
0.15590120655
0.156288033667
0.156717034119
0.157148566844
0.157580384888
0.1580279161
0.158491396021
0.158973335362
0.159473657586
0.159992077682
0.160529166209
0.161085697601
0.161662243566
0.16225913112
0.162877083869
0.163516753
0.164177658489
0.164857803883
0.165553471978
0.166260673752
0.166976666646
0.167699423419
0.168426234431
0.169153718549
0.169879749887
0.170605793887
0.171338747611
0.172092462265
0.172883507282
0.173718515366
0.174604372093
0.174839714577
0.174993561174
0.175243352326
0.175384774259
0.175265445296
0.174908881555
0.174389104326
0.173774004583
0.173127699683
0.172449735627
0.171579823214
0.170553006744
0.169546859547
0.168668606422
0.168007566189
0.167737903385
0.167947730601
0.168633549196
0.169827066479
0.171682354261
0.172416919015
0.168167345283
0.169248028255
0.169332873161
0.152110583663
0.152120555127
0.152144004243
0.152164460739
0.152197970823
0.152247827685
0.152304533696
0.152373069651
0.152468112819
0.15255904736
0.152671157621
0.152792197049
0.152917733166
0.1530431711
0.153181565537
0.15334092724
0.153501768338
0.153665202496
0.153837221119
0.154022541371
0.154224448343
0.154445326988
0.15469786891
0.155014378653
0.155390212667
0.155764282015
0.156142550686
0.156563846322
0.157005048885
0.157440987503
0.157883115025
0.158347257055
0.158835373594
0.159344782404
0.159873412901
0.160421153482
0.160989178227
0.16157822625
0.16218905897
0.162822349591
0.163479215146
0.164159794034
0.164862008811
0.165581718564
0.166314934878
0.167060102689
0.167816499543
0.168580649341
0.169346252707
0.17011003171
0.170876169213
0.171655717129
0.172468830316
0.173335938557
0.174270390701
0.174468187117
0.174699563451
0.174904412145
0.175062155706
0.175131282314
0.174998686484
0.174651457878
0.174133039053
0.173493801779
0.1727789451
0.172003196283
0.171132158294
0.170184556734
0.169247445842
0.168401355068
0.167736259108
0.167387600996
0.167444484279
0.167925716206
0.168752003825
0.169687701319
0.169322662116
0.169890844544
0.170687519804
0.169028394102
0.151895948307
0.151905115029
0.151929365532
0.15195016955
0.151984003051
0.15203419543
0.152092198742
0.152157856972
0.15225462507
0.152359546358
0.152477326497
0.152602095656
0.15273196876
0.152865157852
0.15300661998
0.153166737846
0.153329195759
0.15349602473
0.153670479574
0.153856949152
0.15405871
0.154278778632
0.154527088048
0.15483360641
0.155208717481
0.15560852714
0.155994725183
0.156402226394
0.15683685471
0.157273672223
0.157717758606
0.158187704723
0.158683071153
0.159201448445
0.159740696577
0.160300075346
0.160880226822
0.161482639188
0.162108292995
0.162758219884
0.163433592388
0.164135082689
0.164861222575
0.165607335878
0.166368651336
0.167145154057
0.167938692636
0.168744611846
0.169551283938
0.170353046157
0.171157418071
0.171977232147
0.172835745927
0.173698047553
0.174020943035
0.17431752703
0.174497699031
0.174636977884
0.174710475172
0.174677990387
0.17447806395
0.174091407019
0.173541827512
0.172865720735
0.172095200671
0.171247353643
0.17032327524
0.169344467239
0.168371422998
0.16748354415
0.166740216459
0.166233339845
0.166055953079
0.166216363879
0.166626338842
0.167159016977
0.167557025315
0.16854183887
0.16933488781
0.171776939345
0.15166301649
0.151670668494
0.151690792482
0.151714583851
0.151753031643
0.15180368175
0.151864420719
0.151929068643
0.152024729979
0.152137925856
0.152260831203
0.152388945097
0.15252187677
0.152665665946
0.152813477698
0.152974568072
0.153139247165
0.153310843446
0.153488660843
0.153676998829
0.15387914561
0.1540982497
0.154343182655
0.154641103767
0.155009984125
0.15542537666
0.155830991938
0.156233492419
0.156655764541
0.157087470219
0.157534983311
0.158010740367
0.158513573071
0.159040791289
0.159591149465
0.160163445337
0.160757221362
0.161373752118
0.162015372535
0.162682968856
0.163378107209
0.164102334499
0.164854578105
0.165629499194
0.166419828886
0.167228367492
0.16806569564
0.168924171404
0.16977395962
0.170610777826
0.171449552306
0.172302853837
0.173159640082
0.173482405523
0.173779324975
0.174019563204
0.174165850207
0.174241148908
0.174228728592
0.174096592874
0.173812251284
0.173361622193
0.172756242348
0.172020318504
0.171178454771
0.170249943728
0.169250336034
0.168205464276
0.167160852883
0.166175853925
0.165280973065
0.164526808738
0.163993327122
0.163700039335
0.163611541125
0.163710193067
0.164003025863
0.164899345205
0.167343700749
0.169751626686
0.151414789555
0.151421173276
0.151436030333
0.151463367214
0.151505730419
0.151556582211
0.151619377597
0.151687084018
0.151779379757
0.15189667837
0.152022823914
0.15215319012
0.152286725297
0.152436291612
0.152595851534
0.152760560414
0.152928235175
0.153105409589
0.153289030067
0.153480889634
0.153684706387
0.153902869366
0.154145135353
0.154435718495
0.154793384278
0.155206275921
0.155632232498
0.156045186
0.156463270711
0.156891127097
0.157336734665
0.157816172015
0.158326192179
0.15886061775
0.159422947728
0.160009271944
0.160616819836
0.161248880377
0.161907891511
0.162595133212
0.163311632124
0.164059391886
0.164838729993
0.165646256276
0.16647663428
0.167331551761
0.168215887685
0.169113162795
0.170001451017
0.170883459934
0.171758662676
0.172656828896
0.172960409987
0.173225325237
0.173459001658
0.173632674555
0.173716037556
0.173703439552
0.173584364926
0.173338989336
0.172948454668
0.172403899076
0.171711386272
0.170887133796
0.16995020888
0.168918679962
0.167810358266
0.166648246657
0.16546438534
0.164296213199
0.163173040339
0.162092277398
0.161083278938
0.16017038415
0.159314608327
0.158465918011
0.157584801974
0.156745277946
0.155921614423
0.153787185257
0.151152393225
0.151158464976
0.151171713679
0.151202687429
0.151244898409
0.151293971677
0.151354679704
0.151427068481
0.151515855695
0.151635018365
0.151763631738
0.151896138605
0.152031168494
0.152181558872
0.152351045836
0.152522723559
0.152695203054
0.152877306864
0.153067482088
0.15326533112
0.153473458473
0.153691573882
0.153931659192
0.15421676203
0.154563587101
0.154968142505
0.155401727127
0.155827834254
0.156243607683
0.156668979184
0.157119522748
0.157600406931
0.158115118358
0.158658882622
0.159233692502
0.159834124462
0.160456627793
0.161105358342
0.161782913369
0.162491097949
0.163231083734
0.164005094866
0.164816885477
0.16566865418
0.166552121025
0.167452459576
0.168370575157
0.16930462018
0.170250723972
0.171199602987
0.172191196336
0.172472012635
0.172691758677
0.172893187889
0.173053394737
0.173138614935
0.173125524263
0.173003502553
0.17276367986
0.17239343478
0.171881224675
0.171221814046
0.170418876111
0.169483161934
0.168428557621
0.167269453188
0.16602055564
0.164698583362
0.163323055373
0.16191286336
0.160482866362
0.158979982761
0.157367117021
0.155633318698
0.153677045868
0.151316534813
0.148304247696
0.144426162348
0.139789939426
0.139365068346
0.150873145811
0.150879412863
0.150893250373
0.150928320235
0.150969787394
0.151016461349
0.151072926521
0.151148113714
0.151231901348
0.15135140498
0.151482523147
0.151617311553
0.151754859556
0.15190742681
0.1520822992
0.152261086707
0.152439956507
0.152627409574
0.152822877085
0.153027302243
0.153242376363
0.153462456596
0.153700577134
0.153981596207
0.154319149174
0.154713297654
0.1551461224
0.155580101149
0.156005324448
0.156430256983
0.156883639904
0.157368507594
0.157884732153
0.158430955554
0.159014734942
0.159632566356
0.160273428162
0.160940868122
0.161637808725
0.162367773438
0.163133621926
0.163938456411
0.164792542834
0.165698787427
0.166630179536
0.167567062218
0.1685223011
0.169524907845
0.170577576392
0.17171042919
0.171995252329
0.172180744897
0.172343999572
0.172475378677
0.172540189649
0.172514588551
0.172382342448
0.172132970988
0.17175845532
0.171250426196
0.170601770459
0.169809296041
0.168875058617
0.167805549945
0.166609530901
0.16529613044
0.163873972121
0.162350914803
0.160732979418
0.159020627309
0.157205289356
0.155215439274
0.15291482386
0.150198044007
0.146861703252
0.142469194738
0.136183136377
0.126241988072
0.107566960791
0.0621340566288
0.150570758308
0.150577170125
0.150593463813
0.150633186535
0.150674627616
0.150719554819
0.150773914313
0.150848997271
0.150927314827
0.151045019205
0.151178313827
0.151315309905
0.15145540543
0.151610217833
0.151788523664
0.151973750961
0.152160992448
0.152354568578
0.152554468202
0.152764693459
0.152988189529
0.153213147912
0.15344927896
0.1537268073
0.15405734752
0.154440239782
0.154865781598
0.155297204563
0.155734555107
0.156172626665
0.156626507228
0.157109536664
0.157630957298
0.158186491802
0.158772349578
0.159400431939
0.16006108374
0.160749512034
0.161469476851
0.162223160645
0.163015821689
0.163859554672
0.164770184659
0.165732160815
0.166703175759
0.167679800007
0.168703527283
0.169842370437
0.171148347044
0.171469832435
0.171650092187
0.171796722337
0.171904527735
0.171943395076
0.171893817716
0.171741294271
0.171473950412
0.171083138438
0.170562437232
0.16990615155
0.169109613049
0.168170363477
0.167088764185
0.165867481572
0.164510105823
0.163019599299
0.161396954584
0.1596397624
0.1577397861
0.155678372725
0.153418367172
0.150896138163
0.147899768948
0.144160794993
0.139384455402
0.132943730907
0.123605386191
0.108988729752
0.0842885659606
0.043173977166
0.150236513964
0.150243044148
0.15026175049
0.150306213272
0.150347456072
0.15039383796
0.150447863409
0.15052099896
0.150596976646
0.150714009312
0.150849506231
0.150988541467
0.151130958678
0.151287465766
0.151467468984
0.151656854843
0.151854263979
0.152055480085
0.152260115845
0.152475429375
0.152706821817
0.152940759387
0.153176232428
0.153449072569
0.153774698103
0.154147864278
0.15456408871
0.154988529417
0.155425772698
0.15588054558
0.156348992165
0.15683350929
0.157345675045
0.15790467209
0.158504024218
0.159141394764
0.159817775183
0.160527179216
0.161270931275
0.162051867434
0.162878642084
0.163774961588
0.16474840205
0.16575988459
0.166779658216
0.167833887426
0.168973303793
0.170369252275
0.170799388057
0.171030011888
0.171201048525
0.171312845291
0.171339962531
0.171270288367
0.171094916236
0.170804686894
0.170391730591
0.169850164281
0.169175472615
0.168363672448
0.16741123701
0.166315511394
0.165074872897
0.163688251665
0.162154049
0.160468707229
0.158625049199
0.156610133998
0.154401989925
0.151964338312
0.149238076637
0.146130483495
0.14246204569
0.137852519753
0.131850326902
0.123845576633
0.112711199906
0.0965859186141
0.0722201255676
0.0386387460972
0.149863295408
0.149871704884
0.149891430965
0.149935340782
0.14997961335
0.150032544125
0.150090050423
0.15016419063
0.150244635555
0.150357309288
0.150494294581
0.15063531007
0.150780004345
0.150937894907
0.151118412246
0.151308340536
0.151512071115
0.151724073826
0.151936197254
0.15215780647
0.152395226378
0.152641142368
0.152883821191
0.153148514023
0.153468929239
0.153834432002
0.154241336251
0.154658969711
0.155089823827
0.15555122878
0.156035610958
0.156533996911
0.157045613571
0.157596980265
0.158197972282
0.158847916925
0.159541315876
0.160272486442
0.161039740184
0.161850496729
0.162725257522
0.163686630045
0.164720110167
0.165787898878
0.166889752111
0.168074402446
0.169293006695
0.169897064537
0.170235319531
0.170493385964
0.170650626835
0.170696507823
0.170627657358
0.17044085855
0.170132103405
0.169697252659
0.169132691789
0.168435424356
0.167602714221
0.166631652564
0.165519005599
0.164261266407
0.162854550629
0.161294077705
0.159573180849
0.157681891478
0.155605073486
0.153319868642
0.150791965346
0.147969980625
0.144777034003
0.141098140881
0.136765605283
0.13145228409
0.12459829166
0.115537101807
0.103405375286
0.0868463837597
0.0634619298567
0.033917201973
0.149455819467
0.149467460293
0.149487227959
0.149525033882
0.149575212178
0.149635108681
0.149698788155
0.149778074007
0.14986843777
0.149975984103
0.150111819832
0.150254121706
0.150401157776
0.150560615818
0.150741886
0.150932666123
0.15113726186
0.151358432066
0.151580810059
0.151811217612
0.152054625046
0.152312152593
0.152571386578
0.152838323287
0.15314547917
0.153501693729
0.153899013186
0.154310022314
0.154732462008
0.155191250761
0.155682304629
0.15619913694
0.15672206738
0.157268839095
0.157864032024
0.158516161976
0.159223075609
0.159977616958
0.16077229054