/*--------------------------------*- C++ -*----------------------------------*\
| =========                 |                                                 |
| \\      /  F ield         | OpenFOAM: The Open Source CFD Toolbox           |
|  \\    /   O peration     | Version:  v1806                                 |
|   \\  /    A nd           | Web:      www.OpenFOAM.com                      |
|    \\/     M anipulation  |                                                 |
\*---------------------------------------------------------------------------*/
FoamFile
{
    version     2.0;
    format      ascii;
    class       volVectorField;
    location    "509";
    object      U;
}
// * * * * * * * * * * * * * * * * * * * * * * * * * * * * * * * * * * * * * //

dimensions      [0 1 -1 0 0 0 0];


internalField   nonuniform List<vector> 
6400
(
(-9.54302024234e-05 -0.000126467176653 0)
(-0.000256664403373 -9.47752225142e-05 0)
(-0.000373982692484 -7.55644027714e-05 0)
(-0.000502269123224 -6.59514818856e-05 0)
(-0.00059502816989 -4.08306141022e-05 0)
(-0.000661437334169 -2.14548848666e-05 0)
(-0.0006954515494 -1.42874302648e-05 0)
(-0.000722384443425 -2.42380577994e-05 0)
(-0.000803185258273 -3.55853174744e-05 0)
(-0.000883896807929 -3.33388884976e-05 0)
(-0.00091643868384 -2.9755751434e-05 0)
(-0.000989967490777 -3.19911080137e-05 0)
(-0.00105537958568 -2.8606717361e-05 0)
(-0.00110773861231 -2.26538587983e-05 0)
(-0.00114542400658 -1.99083481566e-05 0)
(-0.00118510340076 -2.2775547589e-05 0)
(-0.00123540448765 -2.34934614366e-05 0)
(-0.00127783652896 -1.99565832724e-05 0)
(-0.00130751615785 -1.48725087639e-05 0)
(-0.00133425505189 -1.23459888555e-05 0)
(-0.00137010529356 -1.75733694878e-05 0)
(-0.00141596725823 -2.34785315308e-05 0)
(-0.00146541298301 -2.47227517917e-05 0)
(-0.00151006009408 -2.3924436533e-05 0)
(-0.0015518351904 -2.1706443596e-05 0)
(-0.0015913636651 -1.8942114586e-05 0)
(-0.00163045369567 -1.76890704886e-05 0)
(-0.00166591705554 -1.59418612181e-05 0)
(-0.00169524059285 -1.34357310711e-05 0)
(-0.00171919120892 -1.14451410583e-05 0)
(-0.00173808211331 -1.09867347663e-05 0)
(-0.0017578855702 -9.94830515436e-06 0)
(-0.00177764542972 -7.83491019503e-06 0)
(-0.00179301080889 -7.59696429899e-06 0)
(-0.00180680070476 -7.20372806651e-06 0)
(-0.00182603711252 -6.6799945311e-06 0)
(-0.00184184213669 -7.09102860409e-06 0)
(-0.00184384195953 -6.08050030779e-06 0)
(-0.00185625521275 -3.93649498987e-06 0)
(-0.00187450225849 -2.99848251795e-06 0)
(-0.00188432490339 -5.78740509215e-06 0)
(-0.00188365318218 -5.34897568092e-06 0)
(-0.00187977359957 1.83026520766e-06 0)
(-0.00187214063437 7.03141273039e-06 0)
(-0.0018576281842 9.67406179836e-06 0)
(-0.00183773290756 1.26361346294e-05 0)
(-0.00181174601773 1.57289450214e-05 0)
(-0.00177829805559 1.95423856393e-05 0)
(-0.00173743793659 2.3208715266e-05 0)
(-0.00168917905672 2.408165895e-05 0)
(-0.00163748669309 2.23094383608e-05 0)
(-0.00159099655794 2.58929141537e-05 0)
(-0.00152703828845 3.97939232628e-05 0)
(-0.00145086831 4.80312734664e-05 0)
(-0.00135308187512 5.47656538058e-05 0)
(-0.00122247221632 6.48062646052e-05 0)
(-0.00108602370631 6.48433624357e-05 0)
(-0.000963630415826 6.36502097284e-05 0)
(-0.00083856491996 7.21537535857e-05 0)
(-0.000670676725467 7.72850233785e-05 0)
(-0.000507154825614 7.813930585e-05 0)
(-0.000333291470483 9.32632684314e-05 0)
(-0.000134925135717 0.000126354468429 0)
(0.000127587865955 9.08176827313e-05 0)
(0.000241893823247 4.70941647245e-05 0)
(0.000301435953702 2.86721223361e-05 0)
(0.000341294647342 1.69981008833e-05 0)
(0.000372573844018 9.48679396934e-06 0)
(0.000394774995484 3.34717253911e-06 0)
(0.000396976399053 -3.47024532591e-06 0)
(0.000385897360069 -9.75453572786e-06 0)
(0.000355634278199 -1.48977020589e-05 0)
(0.000315433013634 -1.97416136969e-05 0)
(0.000285769216593 -2.55149389417e-05 0)
(0.000217974078923 -2.23975986646e-05 0)
(0.000191663485861 -2.0845737718e-05 0)
(0.000127183046196 -1.32658700797e-05 0)
(0.000131230197996 -1.87603913705e-05 0)
(5.6525971685e-05 -1.34742768448e-05 0)
(4.20325454907e-05 -2.51240770188e-05 0)
(-3.58490383091e-05 -0.000177154525227 0)
(-0.000152620592268 -0.000197968538017 0)
(-0.000265976055462 -0.000178498474654 0)
(-0.000338885776569 -0.000142752093925 0)
(-0.00049031818216 -0.000139415087558 0)
(-0.00062797340679 -9.8360249161e-05 0)
(-0.000707952748476 -6.20605996206e-05 0)
(-0.000762396803224 -7.97754414972e-05 0)
(-0.000820308704182 -0.000102934836706 0)
(-0.000885124409272 -0.000100240303738 0)
(-0.000946493895002 -9.32375983158e-05 0)
(-0.001002586476 -9.05890968639e-05 0)
(-0.0010546555331 -8.03243702982e-05 0)
(-0.00110127300598 -6.72841026411e-05 0)
(-0.00114705844528 -6.13833563796e-05 0)
(-0.00119114077933 -7.26171510471e-05 0)
(-0.00123613565997 -7.61996337111e-05 0)
(-0.00127210531751 -5.34742991662e-05 0)
(-0.00127056327751 -3.68520034192e-05 0)
(-0.0013051193025 -3.78626085379e-05 0)
(-0.00135297584972 -5.52258619111e-05 0)
(-0.00140669741727 -7.60940458904e-05 0)
(-0.00146657786383 -7.93428807761e-05 0)
(-0.00151630527767 -6.9992094781e-05 0)
(-0.00154556030069 -6.27303216547e-05 0)
(-0.00159157521209 -5.9006889955e-05 0)
(-0.00163352596069 -5.38297347918e-05 0)
(-0.0016662099766 -4.69363755814e-05 0)
(-0.00169413206226 -4.01451698282e-05 0)
(-0.00171905837139 -3.46787318949e-05 0)
(-0.00174028832411 -3.19028416408e-05 0)
(-0.0017525102805 -2.82425196661e-05 0)
(-0.00177192721445 -2.17095125573e-05 0)
(-0.00178572200658 -2.21012602113e-05 0)
(-0.00179609030847 -2.41009587704e-05 0)
(-0.0018244512675 -2.00103663805e-05 0)
(-0.0018350678936 -2.02191717602e-05 0)
(-0.00183780466433 -2.11241984566e-05 0)
(-0.00185651579947 -1.69706598891e-05 0)
(-0.00188584120833 -1.04557362424e-05 0)
(-0.00189785885241 -9.51744837885e-07 0)
(-0.00184213028679 7.87282678659e-06 0)
(-0.00181216967563 1.33736165931e-05 0)
(-0.00181032581269 1.77868397059e-05 0)
(-0.00179992201731 2.29423019591e-05 0)
(-0.00178958470153 2.98541988202e-05 0)
(-0.00177614349595 3.89364043425e-05 0)
(-0.00175167394686 4.96096209272e-05 0)
(-0.00172564969502 6.13586918212e-05 0)
(-0.00168870063819 7.25348561915e-05 0)
(-0.00163103886051 8.11622813719e-05 0)
(-0.00154389557068 8.90584126256e-05 0)
(-0.00146026584856 0.000100820440846 0)
(-0.00145059216546 0.000127430832936 0)
(-0.0013422200562 0.00015723085271 0)
(-0.00122936704488 0.000179041003165 0)
(-0.00113767061549 0.000191345442081 0)
(-0.00101227297202 0.000202119496059 0)
(-0.000867040839017 0.000224404564659 0)
(-0.000711304892656 0.000251663359555 0)
(-0.000541418855294 0.000280094405457 0)
(-0.000301240612631 0.000281065985018 0)
(-0.000105853183235 0.000364789797938 0)
(0.000130591739746 0.000278242379199 0)
(0.00024591762349 0.000151200010899 0)
(0.000291538926513 7.75089825929e-05 0)
(0.00032367528717 4.85933940613e-05 0)
(0.00037133998722 3.4184133086e-05 0)
(0.000394772544604 1.36636604036e-05 0)
(0.000403362705081 -1.07332851854e-05 0)
(0.000385599558315 -3.40007646078e-05 0)
(0.0003501288181 -5.05155333147e-05 0)
(0.000300383166655 -5.55056586725e-05 0)
(0.000277296104891 -6.27413466377e-05 0)
(0.000240028721816 -6.38004721505e-05 0)
(0.000204373566235 -6.12412305891e-05 0)
(0.000166693608486 -5.36281944732e-05 0)
(0.000131423101462 -5.64765619476e-05 0)
(8.11681834772e-05 -6.06876187452e-05 0)
(3.74239244503e-05 -9.88186842336e-05 0)
(-5.34362987908e-05 -0.000305947497407 0)
(-0.000147596290685 -0.000331593650632 0)
(-0.000227869032357 -0.000306624850624 -9.43746961333e-29)
(-0.000385483297673 -0.000308720677371 8.82056670163e-29)
(-0.000531664313368 -0.000302838099394 7.82861305892e-29)
(-0.000622800202068 -0.000242647167008 -7.15512651426e-29)
(-0.000687126824595 -0.000129554537977 7.20505192199e-29)
(-0.000744007202268 -0.000137167689932 -7.02477383345e-29)
(-0.000804696246026 -0.000166919539282 0)
(-0.000873709177485 -0.000169210112308 0)
(-0.000941086070179 -0.000157929433491 0)
(-0.000999949688775 -0.000143869386277 0)
(-0.00105207645707 -0.000127053535426 0)
(-0.00109736526432 -0.000114584060557 0)
(-0.00114335200452 -0.000107072464525 0)
(-0.00118713732317 -9.40886514004e-05 0)
(-0.00109960386916 -6.91233124893e-05 0)
(-0.00107411405507 -5.40671140326e-05 0)
(-0.00111264230344 -6.46383043692e-05 0)
(-0.00119062904954 -9.99160160419e-05 0)
(-0.00134352126432 -0.000135347576 0)
(-0.00142465143046 -0.000142032214931 0)
(-0.00145493156854 -0.000130278100309 0)
(-0.00150496078081 -0.000116435718964 0)
(-0.00155579610886 -0.000106636004093 0)
(-0.00159478883277 -9.90250170318e-05 0)
(-0.00162991323813 -8.83553704604e-05 0)
(-0.00166302484647 -7.69099662183e-05 0)
(-0.00169167456969 -6.65573949444e-05 0)
(-0.00171498563894 -5.8226190745e-05 -1.3743415491e-28)
(-0.00173918430651 -5.07669226838e-05 1.33180392558e-28)
(-0.00174513483773 -4.410597308e-05 0)
(-0.00176128864747 -3.64809351976e-05 0)
(-0.00179153180135 -3.07301693743e-05 0)
(-0.00177272689822 -3.7383009976e-05 0)
(-0.0018019109018 -4.02774036637e-05 0)
(-0.00184190570704 -3.36339141272e-05 0)
(-0.0018250761984 -3.45624897428e-05 0)
(-0.00184897203704 -3.73495831084e-05 0)
(-0.00188392495186 -2.50278084049e-05 0)
(-0.00189863104755 3.00607815403e-06 0)
(-0.00189487987953 2.38310477979e-05 0)
(-0.00188726548019 2.73081976182e-05 0)
(-0.00187822672414 2.97201013049e-05 0)
(-0.00186388267059 3.72431569478e-05 0)
(-0.00184396688397 4.80265098776e-05 0)
(-0.00181865541895 6.24646534907e-05 0)
(-0.00178763279798 7.91205513361e-05 0)
(-0.00175075840752 9.79978882388e-05 0)
(-0.00170733813669 0.000120323923214 0)
(-0.00165656948514 0.000143766528838 0)
(-0.00159740184422 0.000162306012471 0)
(-0.00152818117883 0.000175805078011 0)
(-0.00143764616326 0.000207549314169 0)
(-0.00132956042557 0.000248914695156 0)
(-0.00123929305383 0.000281481130634 0)
(-0.00112877216038 0.000310145954504 0)
(-0.000992164307941 0.000343010300225 0)
(-0.000836625470641 0.000381427726846 0)
(-0.000664742192467 0.000425780279757 0)
(-0.000474201107014 0.000475876944563 0)
(-0.000271392138741 0.000535583184366 0)
(-6.48702418251e-05 0.000589243375446 0)
(0.000113308686931 0.000416336081663 0)
(0.000214710193468 0.000222522857913 0)
(0.00029246837265 0.000135728975004 0)
(0.000350557595125 9.22243230378e-05 0)
(0.000379510091333 5.75621702711e-05 0)
(0.00039323531887 1.8751571677e-05 0)
(0.00038988533378 -2.2807849843e-05 0)
(0.000366909158552 -5.71386275159e-05 0)
(0.000337063089118 -7.70438008147e-05 0)
(0.000316758774994 -8.77444415176e-05 0)
(0.000289586200202 -9.97005124514e-05 0)
(0.000246521211224 -0.00010686147457 0)
(0.000200728676447 -0.000103137260578 0)
(0.000157482001302 -9.49714251923e-05 0)
(0.000120747153495 -0.000104040316232 0)
(8.31487535087e-05 -0.000136634952469 0)
(2.14983733293e-05 -0.000136544192715 0)
(-5.36338688831e-05 -0.000455107182301 0)
(-7.10601922921e-05 -0.00031005417824 0)
(-0.000186891606887 -0.000462065885465 0)
(-0.000334738254081 -0.000459212010024 0)
(-0.000461580334633 -0.000388888117893 0)
(-0.000272422807374 -0.000153677429062 0)
(-0.000343319773862 -0.000154059172094 0)
(-0.000629345694923 -0.000270225864541 0)
(-0.000760439192337 -0.000278114140747 0)
(-0.000848128804878 -0.000251397510776 0)
(-0.000928200429136 -0.000229232600391 0)
(-0.000994712801249 -0.000203894881522 0)
(-0.00105027486721 -0.000177687351711 0)
(-0.00108769135706 -0.000141125892065 0)
(-0.00104115975206 -9.37387478715e-05 0)
(-0.000996339154886 -6.24745810208e-05 0)
(-0.0010010171777 -6.04254790248e-05 0)
(-0.00106465257433 -9.79142774625e-05 0)
(-0.00119981420812 -0.000158268333657 0)
(-0.00132454150175 -0.000211813854925 0)
(-0.00136831781677 -0.000217907124126 0)
(-0.0014148296758 -0.000197855747095 0)
(-0.00146651546662 -0.000179410723046 0)
(-0.0015119706442 -0.000164872835681 0)
(-0.00155276249846 -0.000150018969878 0)
(-0.00158981592661 -0.000135344739334 0)
(-0.00162357759916 -0.000121390193902 0)
(-0.00165976353457 -0.000107161056828 0)
(-0.00168494999452 -9.3139679868e-05 0)
(-0.00171542952668 -8.08926188646e-05 0)
(-0.00172529924362 -6.9715871551e-05 0)
(-0.00175178141981 -5.80028924353e-05 0)
(-0.00174269287544 -4.52873719286e-05 0)
(-0.00176311958349 -4.38885102149e-05 0)
(-0.00180541629491 -5.17706391639e-05 0)
(-0.00179337671558 -6.01197210733e-05 0)
(-0.00183173434445 -5.92499900975e-05 0)
(-0.00187051450237 -5.62060149853e-05 0)
(-0.00188363324082 -5.3989874792e-05 0)
(-0.00189186160397 -3.60367573643e-05 0)
(-0.00189790894909 -5.54154509712e-06 0)
(-0.00189801236537 1.97639027849e-05 0)
(-0.00189340501479 3.29964658304e-05 0)
(-0.00188469127045 4.26935667773e-05 0)
(-0.00187054466543 5.51894338987e-05 0)
(-0.00185090946539 7.12973172869e-05 1.23406469493e-28)
(-0.00182586661214 9.08491714353e-05 -1.24334159664e-28)
(-0.00179513260127 0.000113281717665 0)
(-0.00175834734902 0.000138611545129 0)
(-0.00171481964737 0.00016680498672 0)
(-0.00166339044761 0.000196221423991 0)
(-0.00160205261397 0.000225579452724 0)
(-0.00152858567501 0.000259277581471 0)
(-0.0014410667643 0.000303316005778 0)
(-0.00134257406692 0.000348539129646 0)
(-0.00123459431288 0.00039268064909 0)
(-0.00110931028085 0.000443105119914 0)
(-0.000960749492072 0.000498967795168 2.47058210019e-28)
(-0.000789073873537 0.000559794002742 -2.891625388e-28)
(-0.000596410097732 0.000624968299687 0)
(-0.000388366165707 0.000686775651655 0)
(-0.000182706090419 0.000728464408149 0)
(-2.25756296796e-05 0.000703322470375 0)
(0.000113346198893 0.000554398409528 0)
(0.000251271524145 0.000351581785949 0)
(0.000316724402042 0.000200011553911 0)
(0.000359939093017 0.000125751661132 0)
(0.000390725364407 7.38381397682e-05 0)
(0.000403800442736 1.99474596619e-05 0)
(0.000407034302101 -3.64737308636e-05 0)
(0.000391358282866 -8.17649361359e-05 0)
(0.000363807254435 -0.000108497714483 0)
(0.00032317434988 -0.000128012809213 0)
(0.000261522409655 -0.000139600920409 0)
(0.00021429250387 -0.000147596050977 0)
(0.000171360053869 -0.000151139308719 0)
(0.000124438114621 -0.00014162238937 0)
(7.28164513741e-05 -0.000119029447998 0)
(5.29197042849e-05 -0.000153956700583 0)
(1.78329904929e-05 -0.00017891532143 0)
(-6.69789642812e-06 -0.000458188856251 0)
(-3.7322123975e-05 -0.000377549467123 0)
(-0.000168500675936 -0.000603652557212 0)
(-0.000286345800167 -0.000557027122087 0)
(-0.000313846554203 -0.000369455025243 0)
(-0.000251859168819 -0.00020639637808 0)
(-0.000425264309551 -0.000331954736931 0)
(-0.000631178815097 -0.00044859737181 0)
(-0.000715149946183 -0.000396773819937 0)
(-0.000814921465138 -0.000345046644181 0)
(-0.000902465715143 -0.000314459651223 0)
(-0.000976140211558 -0.000272818609612 0)
(-0.000990391897877 -0.000192586292295 0)
(-0.000921052550162 -0.000110098383923 0)
(-0.000941051855392 -8.02119933678e-05 0)
(-0.000997795842855 -9.23370267813e-05 0)
(-0.00109318896734 -0.000140180447707 0)
(-0.0012080045516 -0.00020937988305 0)
(-0.00128801846543 -0.000257145519213 0)
(-0.00131455401068 -0.000262877617148 0)
(-0.00136115446163 -0.000259396879977 0)
(-0.00141743139415 -0.000249414302497 0)
(-0.00146435979275 -0.000229958713271 0)
(-0.00150828999919 -0.000208570266077 0)
(-0.00154779963604 -0.000188840729385 0)
(-0.00158272192802 -0.000171843940945 0)
(-0.00162182871175 -0.000154818883554 0)
(-0.00164658972253 -0.000137079897021 0)
(-0.00168600154954 -0.000119721335023 0)
(-0.0016947205611 -0.000101905914637 0)
(-0.00173274560365 -8.6567327143e-05 -1.31699441371e-28)
(-0.00170773949331 -7.08571191538e-05 1.24608527766e-28)
(-0.00175247833711 -6.39066342175e-05 0)
(-0.00179066797921 -6.24895531035e-05 0)
(-0.00178677677313 -7.15035200736e-05 0)
(-0.00183447736506 -8.61157541258e-05 0)
(-0.00186015435555 -9.08727939237e-05 0)
(-0.00187826019211 -7.97939664322e-05 0)
(-0.0018898767558 -6.25285789129e-05 0)
(-0.00189739865304 -3.91671601382e-05 0)
(-0.00190292108151 -9.62163108631e-06 0)
(-0.00190461814784 1.76850595427e-05 0)
(-0.00190153690646 3.76379642549e-05 0)
(-0.00189343175249 5.42664245617e-05 0)
(-0.00187981149625 7.24235990526e-05 0)
(-0.00186073627719 9.38262799101e-05 0)
(-0.00183619826636 0.000118734910095 0)
(-0.00180587399439 0.000147015632289 0)
(-0.00176921634433 0.000178781910597 0)
(-0.00172536379205 0.000214091176199 0)
(-0.00167296893634 0.000252467171456 0)
(-0.00161001881491 0.000294130967344 0)
(-0.001534447085 0.000341440193204 0)
(-0.00144500595797 0.000395675000131 0)
(-0.00134219533865 0.000453923709394 0)
(-0.00122432753408 0.000518044911493 0)
(-0.00108503238678 0.000591677820523 0)
(-0.000919264552928 0.000673357133967 0)
(-0.000727064255138 0.000758879345746 0)
(-0.00051474690165 0.000839323516766 0)
(-0.000298273475577 0.000895696719247 0)
(-0.000105039041873 0.000901648098421 0)
(2.97433010907e-05 0.000822146618777 0)
(0.000162740164667 0.000694443904085 0)
(0.000308026258822 0.000481992452768 0)
(0.000372202998939 0.00027053080302 0)
(0.000407394100412 0.000158533285065 0)
(0.000423884312093 8.63585789061e-05 0)
(0.000426973483697 1.95502996572e-05 0)
(0.000424936209476 -4.748014484e-05 0)
(0.000412268392657 -0.000108381222853 0)
(0.000369202618259 -0.000154861615021 0)
(0.000294188878195 -0.000177380537331 0)
(0.000239212153286 -0.000191730290511 0)
(0.000190014285177 -0.00020130344542 0)
(0.000142281661672 -0.000201951519513 0)
(9.58231217197e-05 -0.000173970293224 0)
(6.18167756376e-05 -0.000153819889069 0)
(3.99073280435e-05 -0.000193732396094 0)
(1.05496775565e-05 -0.000201905739479 0)
(2.22315348611e-07 -0.00042947822709 0)
(-4.49983622195e-05 -0.000458776797715 0)
(-0.000169312359098 -0.000689987235621 0)
(-0.00023966511518 -0.000579163341897 0)
(-0.000185630722244 -0.00029252088995 0)
(-0.000254691402555 -0.000298037529532 0)
(-0.000521134721262 -0.000533135652808 0)
(-0.000605130159344 -0.000546046855005 0)
(-0.00068313896375 -0.000491292818022 0)
(-0.000775131162373 -0.000441741367035 0)
(-0.000863908280595 -0.000379782043876 0)
(-0.000820418020059 -0.00026273952664 0)
(-0.000758023763705 -0.000151767256395 0)
(-0.000816495486006 -0.0001246881653 0)
(-0.000890081524954 -0.000142822254529 0)
(-0.00102127376296 -0.000197675500404 0)
(-0.00115095952963 -0.00025784518353 0)
(-0.00123451056077 -0.000288534145055 0)
(-0.00124911294557 -0.000288645785436 0)
(-0.00130356588533 -0.0003034339337 0)
(-0.00136661355154 -0.000313194764177 0)
(-0.0014137911492 -0.000299703513776 0)
(-0.0014582399117 -0.000276451236172 0)
(-0.00149960471917 -0.000252139808992 0)
(-0.0015448268325 -0.000229394182516 0)
(-0.00157995863647 -0.000205266125649 0)
(-0.00159645742604 -0.000186050261197 0)
(-0.00165087861627 -0.000168354638231 0)
(-0.00164985589383 -0.000143007514952 0)
(-0.00170635719806 -0.000119806253106 0)
(-0.00166443680634 -9.56020027178e-05 0)
(-0.00173003666345 -9.12813849538e-05 0)
(-0.00169967893576 -8.72376898594e-05 0)
(-0.00176730644122 -9.32157307955e-05 0)
(-0.00182625257823 -0.00010750270225 0)
(-0.00185360171724 -0.000118663454144 0)
(-0.00187123452453 -0.000111283510321 0)
(-0.00188548599607 -9.36448625587e-05 0)
(-0.00189642097313 -7.12547651161e-05 0)
(-0.00190470677363 -4.45759433144e-05 0)
(-0.00191062437388 -1.40954277165e-05 0)
(-0.00191318662078 1.56917412778e-05 0)
(-0.00191121889856 4.13591679015e-05 0)
(-0.00190398437402 6.4591129274e-05 0)
(-0.00189123395224 8.87114651052e-05 0)
(-0.00187298476902 0.000115642536991 0)
(-0.00184919990865 0.000146109665896 0)
(-0.00181945035207 0.000180414425861 0)
(-0.00178299437634 0.000218935058925 0)
(-0.00173883048269 0.000262066594614 0)
(-0.00168553489079 0.000310135269738 0)
(-0.00162115465934 0.000363910402036 0)
(-0.00154363213969 0.000424732642372 0)
(-0.00145123891238 0.00049316549344 0)
(-0.00134221255044 0.000569542435175 0)
(-0.00121268948547 0.000657126618093 0)
(-0.00105678623116 0.000757947334133 0)
(-0.000871416882166 0.000867575425349 0)
(-0.000660361561789 0.000974794273647 0)
(-0.000435367242649 0.00105893436474 0)
(-0.000219058444935 0.00109361243993 0)
(-3.66513047203e-05 0.00104826823261 0)
(9.81740996288e-05 0.000901389312966 0)
(0.000248361284426 0.000846953967935 0)
(0.000352794568119 0.000570819153652 0)
(0.000406773562007 0.000322819234098 0)
(0.000449496204509 0.000182000164534 0)
(0.000467552825302 9.14900441039e-05 0)
(0.000464326298277 1.43897541826e-05 0)
(0.000464893472899 -6.69779271901e-05 0)
(0.000438044215378 -0.000156409365734 0)
(0.000353121124384 -0.000212506050158 0)
(0.000278042613245 -0.000236784074356 0)
(0.000221308055508 -0.000252709673752 0)
(0.000162613283723 -0.000256325812384 0)
(0.000118322740628 -0.000246208752463 0)
(7.79703196618e-05 -0.000199538693263 0)
(5.10295471941e-05 -0.000181568989283 0)
(3.17204217853e-05 -0.000219030086445 0)
(9.3269216432e-06 -0.000220454460118 0)
(-1.60801128452e-05 -0.000467101941038 0)
(-9.87149262516e-05 -0.00059533158252 0)
(-0.000217427407031 -0.000753364516698 0)
(-0.000249716746284 -0.000702710222773 0)
(-0.000176710584888 -0.000368698097207 0)
(-0.000361235774386 -0.000521369268666 0)
(-0.000531528487652 -0.000649980250327 0)
(-0.00058190015547 -0.000617673481452 0)
(-0.000657235063701 -0.000566463404926 0)
(-0.000710593796313 -0.000511496540224 0)
(-0.000827878591873 -0.000422980968246 3.29201301462e-28)
(-0.000662532972126 -0.000214796123272 -2.0325846672e-28)
(-0.000751782190343 -0.000187310698555 0)
(-0.000801146225237 -0.000197430680993 0)
(-0.000923859359559 -0.000255656569279 0)
(-0.00107252023982 -0.000332746835527 0)
(-0.00116475902213 -0.000351751991061 0)
(-0.00116403355457 -0.000321430493068 0)
(-0.00122921259539 -0.000334684302796 0)
(-0.00130999571309 -0.000365132644163 0)
(-0.00135694738066 -0.000365841967532 0)
(-0.00140602005588 -0.000347415318448 0)
(-0.0014529132667 -0.00032262532339 0)
(-0.0014965714583 -0.000294411271644 0)
(-0.00152848265448 -0.000263543523467 0)
(-0.00155115116704 -0.000233684320982 0)
(-0.00160327247373 -0.000215038238473 0)
(-0.00158994371692 -0.000194172722365 0)
(-0.00166702451089 -0.000168272522617 0)
(-0.00161770596859 -0.00012455371172 0)
(-0.00169552493373 -0.00011557204705 0)
(-0.00166977328523 -0.000115722213904 1.21807539164e-28)
(-0.00173943372289 -0.000121290636489 -1.25285903753e-28)
(-0.00177623149154 -0.00014071850347 0)
(-0.00184227074072 -0.000153174541252 0)
(-0.00186481169268 -0.000144931904998 0)
(-0.00187927100686 -0.000127726903992 0)
(-0.0018925628464 -0.000105970137979 0)
(-0.00190445991122 -8.05088788721e-05 0)
(-0.0019139074732 -5.13280987497e-05 0)
(-0.00192049196437 -1.90614483531e-05 0)
(-0.00192382253337 1.36020356423e-05 0)
(-0.00192282207808 4.43524018926e-05 0)
(-0.00191661044099 7.37183081415e-05 0)
(-0.00190492128645 0.000103830786997 0)
(-0.00188774351853 0.000136480249645 0)
(-0.0018649242866 0.000172739722839 0)
(-0.00183589188264 0.000213342125988 0)
(-0.00179977931091 0.000259009991749 0)
(-0.00175553164113 0.00031053429518 0)
(-0.00170170721073 0.000368809627982 0)
(-0.00163632186374 0.000434979244684 0)
(-0.00155701515443 0.000510369963396 0)
(-0.0014610376567 0.000596401753169 0)
(-0.00134470221529 0.000695544977696 0)
(-0.0012027862992 0.000811165993313 0)
(-0.00103022840045 0.000942280780424 0)
(-0.00082660276628 0.00107863616016 0)
(-0.000599485194532 0.00120047872847 0)
(-0.000364048293292 0.00128179979916 0)
(-0.000141005145784 0.00129038441956 0)
(4.68057222289e-05 0.0012105379202 0)
(0.000207167431903 0.00109419096743 0)
(0.00032846038053 0.00093260574738 0)
(0.000415014110879 0.000642817633664 0)
(0.000451797136779 0.000368847905878 0)
(0.000517776717826 0.000219859482923 0)
(0.000547636770239 0.000104334384226 0)
(0.000543097763183 1.77924635103e-06 0)
(0.000520380096763 -0.000111582433118 0)
(0.000450436608171 -0.000224686049576 0)
(0.000348000664938 -0.000282996192795 0)
(0.000272453296802 -0.000313319930296 0)
(0.000196712032334 -0.00032162369458 0)
(0.000134157836416 -0.000312042280381 0)
(9.20745222059e-05 -0.000271621147687 0)
(6.51495251821e-05 -0.000230860561268 0)
(3.77894216508e-05 -0.000205545492815 0)
(2.24342662499e-05 -0.000234940163703 0)
(8.17401529373e-06 -0.000241499779163 0)
(-3.26179032903e-05 -0.000544403266573 0)
(-0.000138214272432 -0.000724178232337 0)
(-0.000241679184168 -0.00078665914632 0)
(-0.000162448854516 -0.000486627126112 0)
(-0.000186378810756 -0.000459900968429 0)
(-0.000414497253937 -0.000713813274136 0)
(-0.000492964202407 -0.000721640463957 0)
(-0.000563352354141 -0.000688698615333 0)
(-0.000610683070104 -0.000620783444913 0)
(-0.000687725913204 -0.000561708113321 0)
(-0.00057632099384 -0.000336752413276 0)
(-0.000655569269382 -0.000256610921973 0)
(-0.000733325308786 -0.000253390338257 0)
(-0.000799755977315 -0.000289149221407 0)
(-0.000978436134265 -0.000390846149762 0)
(-0.0010880302353 -0.000430134285077 0)
(-0.0010785235868 -0.000381653970227 0)
(-0.0011361295637 -0.00037236029975 0)
(-0.00123598489994 -0.000409581638157 0)
(-0.00130016930673 -0.000425472147885 0)
(-0.00134446210722 -0.000414664215522 0)
(-0.00138946898255 -0.000393951893222 0)
(-0.00144102294194 -0.000370806530049 0)
(-0.00148426737469 -0.00033867957295 0)
(-0.00153218252906 -0.000295997038245 0)
(-0.00153320896594 -0.000265960236495 0)
(-0.0016015098351 -0.000242620812431 0)
(-0.00160267570248 -0.000211967853966 0)
(-0.00159239845045 -0.000180166375598 0)
(-0.00162871861875 -0.000157889343392 0)
(-0.0017187854472 -0.000149613692348 0)
(-0.00170347253419 -0.000139472905406 0)
(-0.00172218787641 -0.000165192820911 0)
(-0.00182179907812 -0.000192850298668 0)
(-0.00184907497184 -0.000190431090235 0)
(-0.00186987921903 -0.000168224197043 0)
(-0.00188669590337 -0.000143878029412 0)
(-0.00190097219485 -0.000118833480499 0)
(-0.00191391212829 -9.09953677915e-05 0)
(-0.0019246566743 -5.94405067535e-05 0)
(-0.0019322744382 -2.4798522149e-05 0)
(-0.00193643005237 1.10637160425e-05 0)
(-0.00193643218669 4.65394397973e-05 0)
(-0.00193142051254 8.16373088542e-05 0)
(-0.00192100625678 0.000117658077106 1.19534930552e-28)
(-0.00190510536216 0.000156152657846 -1.1926375213e-28)
(-0.00188342955999 0.000198440297251 0)
(-0.00185528610131 0.000245626825157 0)
(-0.00181976624445 0.000298763337043 0)
(-0.0017758467051 0.00035902137901 0)
(-0.00172209620257 0.000427830224673 0)
(-0.00165641548732 0.000506954799757 0)
(-0.0015759619315 0.000598583643467 0)
(-0.00147682684173 0.000705602839783 0)
(-0.00135372264029 0.000831672753895 0)
(-0.00120069878677 0.000978754829895 0)
(-0.00101379880414 0.00114139327356 0)
(-0.000794225604406 0.00130365146013 0)
(-0.000549588326151 0.00144064814193 0)
(-0.000292348956663 0.00152220818808 0)
(-4.39444818163e-05 0.00151131039117 0)
(0.000168471726722 0.00140249344725 0)
(0.000333402635515 0.00122641828623 0)
(0.00043135710394 0.00100196871285 0)
(0.000559894018231 0.000778203778686 0)
(0.000550191031582 0.000416510797432 0)
(0.000597501187506 0.000255142033776 0)
(0.000634213800158 0.000112491173933 0)
(0.000614620316954 -2.94929441781e-05 0)
(0.00056356685345 -0.000180532974901 0)
(0.000466803754295 -0.000309243066763 0)
(0.000357816036953 -0.000376708962307 0)
(0.000258498004224 -0.000407807693596 0)
(0.000162687415215 -0.000400811922927 0)
(9.68236588855e-05 -0.000361764958699 0)
(6.08342718211e-05 -0.000296278387329 0)
(4.31838536736e-05 -0.000256347652621 0)
(2.29044799139e-05 -0.000231012080573 0)
(9.81564665201e-06 -0.000245050676212 0)
(3.6830772207e-06 -0.000258190800223 0)
(-4.54068262106e-05 -0.000641459170311 0)
(-0.000156209238609 -0.000828264054196 0)
(-0.000206289885549 -0.000813997229219 0)
(-0.00015667499452 -0.000533603948359 0)
(-0.00025453866967 -0.000605928122655 0)
(-0.000424433154334 -0.000809363194803 0)
(-0.000457921032847 -0.000788455797041 0)
(-0.000546338416372 -0.000755476375645 0)
(-0.000533893776675 -0.000628758221914 0)
(-0.00069107722296 -0.000630448786777 0)
(-0.00055870033424 -0.000371345662908 0)
(-0.00066132678703 -0.000331509790022 0)
(-0.000724215360441 -0.000333822336187 0)
(-0.00084957765483 -0.000416395535771 0)
(-0.000994990189837 -0.000510780338804 0)
(-0.0010691885888 -0.000492807617724 0)
(-0.00105798980804 -0.00042650002124 0)
(-0.00113989080371 -0.000446676306428 0)
(-0.00122441674697 -0.000481397700255 0)
(-0.00128250976832 -0.000482435321927 0)
(-0.00133494270486 -0.000464198299765 0)
(-0.00137528183618 -0.00043785150651 0)
(-0.00142326699672 -0.000412658267321 0)
(-0.00144859929787 -0.000378464167709 0)
(-0.00147256703853 -0.000323181776537 0)
(-0.0015484875561 -0.00029577829899 0)
(-0.00150343318381 -0.000266553300355 0)
(-0.00163189479652 -0.000240870378629 0)
(-0.00157983889513 -0.000208630834832 0)
(-0.00169123000341 -0.000203666908865 0)
(-0.00164165121561 -0.000177656672078 0)
(-0.0017515516981 -0.000182234879286 0)
(-0.00179319402613 -0.000213513807277 1.32479018453e-28)
(-0.00182883585524 -0.000233701952165 -1.33697319174e-28)
(-0.00185403694075 -0.000217621584746 0)
(-0.00187563937416 -0.000190066767936 0)
(-0.00189478067602 -0.000161640223056 0)
(-0.00191076139218 -0.000133266824892 0)
(-0.00192476516096 -0.000102873807019 0)
(-0.0019366658855 -6.89249364915e-05 0)
(-0.00194559404887 -3.15953856935e-05 0)
(-0.00195094441571 7.71701590022e-06 0)
(-0.00195211777105 4.77328717294e-05 0)
(-0.00194845966515 8.82411925492e-05 0)
(-0.00193956930691 0.000130058832071 0)
(-0.00192515826618 0.000174506370497 0)
(-0.00190478088062 0.000223028435316 0)
(-0.0018777317297 0.00027701399474 0)
(-0.00184317344762 0.000337792298825 0)
(-0.00180017209009 0.000406889077342 0)
(-0.00174736928358 0.000486350624936 0)
(-0.00168260924046 0.000578952334509 0)
(-0.00160258355863 0.000688375148968 0)
(-0.00150228252857 0.000819137394931 0)
(-0.00137508624849 0.000975243426658 0)
(-0.00121444598829 0.00115606292475 0)
(-0.00101653078755 0.00135188447044 0)
(-0.000779978436525 0.00154524930932 0)
(-0.000507805350593 0.00170826186969 0)
(-0.000212384665645 0.00180114396741 0)
(7.08149317758e-05 0.00176568629894 0)
(0.000298960615656 0.00159859020925 0)
(0.000467773371124 0.0013646161021 0)
(0.000592544547171 0.00110493584947 0)
(0.000699563698879 0.000819343409917 0)
(0.00078447587377 0.000493293955474 0)
(0.000710230625999 0.000247918308255 0)
(0.000742649972058 0.000111327525874 0)