/*--------------------------------*- C++ -*----------------------------------*\
| =========                 |                                                 |
| \\      /  F ield         | OpenFOAM: The Open Source CFD Toolbox           |
|  \\    /   O peration     | Version:  v1806                                 |
|   \\  /    A nd           | Web:      www.OpenFOAM.com                      |
|    \\/     M anipulation  |                                                 |
\*---------------------------------------------------------------------------*/
FoamFile
{
    version     2.0;
    format      ascii;
    class       volScalarField;
    location    "992";
    object      alpha;
}
// * * * * * * * * * * * * * * * * * * * * * * * * * * * * * * * * * * * * * //

dimensions      [0 0 -1 0 0 0 0];


internalField   nonuniform List<scalar> 
6400
(
0.917664447749
1.50499592442
2.41386817856
3.08242355047
3.7189843774
4.34475683769
5.08797991522
5.9120392886
6.5021167764
7.346628866
8.70952529805
9.76992588102
10.6949173367
11.699706325
12.881573146
14.1319502337
15.309021297
16.4267698411
17.3869031238
18.0503456926
18.5421730905
19.2113530024
20.2397049674
21.5818053174
23.0197515668
24.3550108629
25.5312540753
26.6470026448
27.7930440948
28.9846061485
30.1663282243
31.1683256045
31.9145280369
32.5069655755
32.9989283429
33.4158703837
33.9870086409
34.7215378552
35.1894664981
35.4681552051
36.0581419916
37.0650683967
38.0450057649
38.6563346815
38.9233828393
38.9398074282
38.7683860332
38.4458386457
37.984767716
37.4028166007
36.6340731474
35.4971410329
33.9474400717
32.0772928823
30.2540942265
28.4674136423
26.2054477231
23.3227891654
20.3174086231
17.5743665141
14.8096151117
11.9515752914
9.4051589303
8.54403894236
10.6184932847
14.6334710571
17.152228758
16.5210538578
14.252822068
12.4348921944
11.454335512
11.6505899692
12.2595697764
12.1950637918
14.401132421
13.890802594
15.8761683966
9.76780637558
12.8490486532
4.7966342326
3.19202478232
2.59984046126
3.26902543128
4.57362302766
4.65339066745
4.73804393992
5.09700520889
5.67428430946
6.46783674592
7.46031748925
8.63071559317
9.80433782276
10.8677180474
11.8961176152
12.9562969955
14.1559013932
15.4234407138
16.6323534685
17.8006759803
18.3146958602
18.655147185
19.3186862696
20.3433809677
21.6809649029
23.2074713203
24.5018554206
25.6562673235
26.8005061762
27.9565756447
29.1224072792
30.2834376232
31.3490988682
32.0887196497
32.6723539286
33.1870023855
33.549983057
34.1528323871
34.9122301875
35.3563831529
35.545727998
36.1156048316
37.4539594097
38.6210004221
39.16378377
39.3885227095
39.360514349
39.1347281076
38.7747903956
38.2126210261
37.5179991613
36.7910273346
35.9842677435
34.5539217494
32.2986697084
30.5441986809
28.6157107781
26.0125538778
23.1820110603
20.3212077187
17.4613897786
14.7069186984
12.1865112611
9.73683435917
9.0131084621
10.9593336335
15.6553421531
18.8706038993
17.3027008101
14.8779496611
12.7638701606
11.9675813928
12.3839419504
13.5634534727
13.0141272261
12.9436268114
12.4973793801
11.3795725846
9.59900732113
8.11072219196
4.18932874064
3.36763484702
3.01895142878
3.55520374342
3.96185670848
4.66020896626
5.20388584978
5.27026569972
5.55460587701
6.35667686051
7.42803261677
8.61207511568
9.8044585157
10.9079447576
11.9339084321
12.851182923
13.9554126758
16.4556953826
18.485469125
19.1649160861
19.0180328395
18.4622555875
19.056488188
20.4352462018
21.8155390931
23.1562413361
24.4955755663
25.7308363592
26.876983371
28.0146416048
29.1722855953
30.3094131292
31.4418287674
32.1698857736
32.5872966453
33.3145170403
33.7001377983
34.0999808682
34.9806559449
35.4833690152
35.7429299996
36.327485615
37.3047110691
38.252818078
38.8628891474
39.1547042721
39.2098470739
39.0707720528
38.7566498284
38.2709305802
37.6307236667
36.8293930387
35.7553570081
34.2903540527
32.6251513688
30.8439707673
28.5768052807
25.9459067964
23.1565709102
20.3086357305
17.4843836253
14.76400941
12.1488418894
10.2224374847
10.2295964464
13.1182340742
16.6671863102
18.3374921525
18.0868791829
16.2797820246
14.470936281
13.7079726684
13.5848349531
12.9059336581
12.337522076
12.3965776972
12.1526262542
11.2587762219
9.68114232515
7.24342681246
7.46405398369
3.52074831517
5.65036144333
3.99826389145
4.20648611713
4.97010165737
12.0266427787
10.4906004058
6.01429439388
6.30150353471
7.40653744811
8.62529715985
9.84053250467
10.9182665037
11.9337026025
13.6054198344
15.6685305659
17.4514310316
18.2071059942
17.796891724
17.6459384528
18.3303783967
19.2716210507
20.4412071335
21.8070358579
23.2186065465
24.5801460692
25.8362320816
26.9689541303
28.1148350942
29.2229783199
30.440064183
31.4372116435
32.353334137
32.7415245265
33.0057847889
33.7519920988
34.2364551083
34.7423569895
35.3740443585
35.9536808109
36.6215331844
37.4766905324
38.3184050717
38.9246848329
39.2529433177
39.342174474
39.2286153989
38.9332219205
38.4645611557
37.8267083765
36.9979988694
35.9117097696
34.5219772415
32.8776103492
30.9524251498
28.6357617553
25.989140159
23.1832781778
20.3389842029
17.5527200375
14.9394896743
12.7471820352
11.5922382207
11.7924243723
13.2422117035
17.1635246582
19.9959116624
19.8289891606
17.9592571198
15.4664392246
13.7521764211
12.8893998332
13.0563114872
14.5476331191
14.5472957682
13.2844659801
13.2169093768
16.583786352
12.9424835885
10.9245442569
5.95738427309
7.77472225171
4.92823388228
5.253660743
6.92208449035
11.9320281939
8.67213768582
6.6111105556
6.8312700107
7.61447627825
8.75209107626
9.97563455243
11.4545536048
13.6084588438
14.7507614174
15.4122153155
15.8793915721
16.2532309822
16.8238078327
17.673172595
18.4372022224
19.3285385055
20.5228534411
21.8853071249
23.3017498339
24.6828971336
25.9224544602
27.1393101935
28.1996567633
29.4173877719
30.4727357926
31.8429777186
32.3019378076
32.4893056197
33.0425415896
33.4653043252
34.1040371399
34.8302952469
35.5338832339
36.1946198082
36.8938146398
37.6824583315
38.4502778642
39.0430390536
39.396431752
39.5170665187
39.4300383599
39.1561581608
38.70580751
38.0767439192
37.2447027673
36.1651622375
34.8064200724
33.1572489644
31.1634368888
28.7825203622
26.1088944402
23.3063975657
20.5124881849
17.8659857285
15.5709439293
13.9720543064
13.4091138489
13.2890922572
13.9834896966
17.0958484822
20.2517465869
21.1909733405
19.792768106
16.89103931
14.2844323909
13.8625825531
16.1340790755
17.025012659
16.0191106562
15.1443483361
17.883195616
20.9486040693
16.1884849926
15.2908236195
10.2196621489
9.42416366519
6.14997316153
6.60080390006
12.2291896293
11.7575767599
7.38432839694
7.27238033165
7.49434835703
7.97101930997
8.96143795894
11.4586839452
14.4971786396
15.1124536961
15.0535097941
14.667499464
14.8876391303
15.6868333271
16.8499712724
17.6122050922
18.3549098258
19.3891416577
20.6390107297
22.0171124067
23.3762592219
24.7596053415
26.1688256332
27.222735083
28.5457826369
29.4637842495
31.0013960839
31.689366941
32.6835682621
32.6106482756
32.6667031361
33.3012914992
34.1477923709
34.9793005231
35.7412600986
36.4525526633
37.1726100305
37.9270601064
38.6472418951
39.2250864686
39.5941201154
39.7413716206
39.6805462122
39.4306291231
39.0026605003
38.3918820697
37.5742438987
36.5120907448
35.1667505608
33.4958708479
31.4498866039
29.0371195975
26.3777652305
23.6409824661
20.9903502001
18.6158648133
16.765312366
15.7432182567
15.5413411488
14.7533726158
15.9927383988
19.2414827342
21.7916090442
22.6004271625
21.3854708106
17.8706253174
15.5326258581
17.2101792324
19.3645120286
18.8199043422
17.8412423126
17.9378596498
22.6149061907
24.242607047
19.1525502668
18.953495221
12.3821588701
9.46429091002
7.46250473722
7.0000728376
12.2447677421
8.97503135456
7.76164307381
7.92381969914
8.12064046238
8.8752493245
9.5092682043
14.0150855095
14.8888204172
15.1232452745
14.2434732952
13.8590469658
14.5610776864
16.0057826384
16.7585584632
17.3545714405
18.3462519826
19.4729998358
20.7266192188
22.0998772072
23.5838442911
25.0087017477
26.1756749514
27.7592413582
28.6361504702
30.2385919756
30.8221538365
32.074938248
32.3110911451
32.4396158205
32.5789191286
33.3034997709
34.25690011
35.1634936188
35.9730737783
36.7246838982
37.4666040231
38.208606591
38.9023514996
39.4694877114
39.8493742886
40.0190896385
39.9843598244
39.7621025159
39.3631563002
38.7811624011
37.9906671384
36.951671679
35.6150974039
33.9290581806
31.8653526306
29.4745183215
26.9002917103
24.321046163
21.9096076236
19.8536017013
18.3810669365
17.5787111962
17.0120522258
16.8363047854
18.1195374374
22.1199169433
23.4879314606
23.2017327215
21.7669405522
19.29631328
18.8037877164
21.162198471
21.4823338104
20.6130009142
20.014515134
22.042724498
24.8736814722
26.4054525734
21.7429752871
20.5893170904
12.1961374981
9.31655302699
8.67145973136
12.524653062
12.4540226323
8.31560487084
8.47780991003
8.67849390034
8.78276444612
9.42091954747
13.6851380126
14.6937581619
14.9707094177
14.7527170513
13.3210683748
13.5428842873
15.1527753653
16.0694624095
16.4432941359
17.2176935985
18.3480744281
19.5881695185
20.8790437138
22.2933622058
23.6497948236
25.2468802211
26.2110075192
27.7596749789
29.4823960376
30.3668814982
30.5913529545
31.6760246106
32.3126014275
32.1206695898
32.6049752949
33.4575071746
34.4245000287
35.3643108907
36.2208078512
37.0143792896
37.782348952
38.5279465021
39.2121362952
39.7749804165
40.1643764186
40.3546441526
40.3473743535
40.1577730922
39.79569369
39.2528508681
38.5007800465
37.4940765237
36.1774306206
34.5053950344
32.4812006898
30.1924898265
27.7937511881
25.4390215572
23.2553151429
21.4070446547
20.1030755417
19.3687536622
19.0502710088
19.1811514432
19.1286393149
23.0290446478
25.6795858631
25.0034387354
23.9556198474
22.673171597
23.1216467024
24.1916697409
23.3491577862
22.6005664155
22.7910410465
25.2099580222
25.9598874561
26.6283603775
23.7176400617
21.5494924098
11.6079797208
9.4072383331
9.37147787081
13.559472233
11.6545394045
9.08495270398
9.25912425426
9.59415189801
10.6207749053
9.60234432128
14.4470339107
15.2599849604
15.0445851248
13.7427625892
13.0970292732
13.6589577012
15.1765789296
15.8258684692
16.3311102072
17.2026684397
18.3187384136
19.6111050283
20.9830736439
22.7231931747
24.2177303757
25.2039918058
27.165667055
27.6978580848
29.5763766712
30.0309893354
31.3355912042
31.2192317839
31.5373956031
32.0729686521
32.7796720183
33.6625320952
34.6256641117
35.5845051799
36.4850178182
37.3251572333
38.1258017989
38.8864476404
39.5745421991
40.1410421949
40.5416047904
40.753145395
40.7767980309
40.6261879439
40.3094203763
39.8164355695
39.1159190155
38.1586248202
36.8908230525
35.2861831878
33.3838396229
31.2943937064
29.1415354759
26.985249279
24.8924863608
23.1308548681
22.0259931818
21.6112651326
21.5815031284
21.5475750707
21.2949705951
21.6946327005
26.4467280797
27.3994617659
26.7628193136
26.7766528652
27.2768424543
26.5366134009
25.2966656989
24.9848008602
25.9812665522
27.2727309611
27.2276854736
26.7104198885
25.730805523
24.372594495
11.25264392
9.97416659235
10.5186704255
13.6909518937
10.0501769206
10.124055878
10.0445153262
10.3472094462
13.1199132922
12.003678532
15.2787305815
15.5774650027
15.1847770005
13.2431669631
13.1774306797
14.7063025948
15.3554102821
15.6045414304
16.2721525875
17.2988383024
18.4063053713
19.6424752767
20.873910356
22.8038905824
24.9931981549
25.1384052406
27.0785640466
28.6522657057
29.7457809806
30.7846203161
30.8643521103
31.3377702648
31.3303759801
32.0148405582
32.9439553486
33.8900572542
34.8556795846
35.8269232205
36.7662833315
37.657093053
38.5001588091
39.2870225928
39.9896975895
40.5680101675
40.9847276748
41.2211241839
41.2807934674
41.1767958682
40.9148408919
40.4836518271
39.8518331806
38.9717025017
37.8007848671
36.3414968672
34.6645694015
32.8662969444
30.9548521074
28.8384407525
26.7180127903
25.2130873473
24.625039328
24.6565647488
24.7290739599
24.4594254077
23.8119625314
22.2919368591
21.2907696164
29.5823424595
31.6646477352
31.819656598
30.8972175279
28.9141000113
27.6383747283
27.7569411999
28.9475873094
29.4004645251
29.3260671771
29.215764255
29.6773821325
29.9412506123
11.4168430006
10.9154503342
13.7708101581
13.9971400184
10.351539887
10.9365194731
10.8313046436
11.2457594608
12.8248452232
15.3112715236
16.18564912
15.9284238666
15.5224168497
13.3987258966
13.3508083463
15.1478694102
15.4744099629
15.5881617717
16.2629249074
17.3765428309
18.6773790878
19.95171597
20.9838041213
22.409608876
25.0966346456
26.5362442386
26.8007407394
28.6945866704
28.9437757724
30.7534253084
31.5596325523
31.3243646465
31.3256585124
32.1142151764
33.1301413517
34.1250842536
35.108635367
36.0953963243
37.0672626193
38.0094087611
38.9055445374
39.7312931829
40.4591832139
41.0577615883
41.4978014613
41.7663335664
41.8698594522
41.820881416
41.6235956658
41.2678438365
40.7268928927
39.9630850232
38.956557172
37.7434900239
36.4033225638
34.9376484401
33.1388088303
30.9046349825
28.9648960093
28.2343157683
28.5310582563
28.9479265002
28.9864408958
28.4204343386
27.2436329157
25.261231489
22.6760719244
22.6755490338
33.6512200645
37.5747226929
35.286329413
32.033051135
30.6376183904
30.8803310095
31.7123248943
32.2291154562
32.8705220776
33.7785638011
34.5789616778
35.3812843458
11.9255381239
11.8630535205
15.4579656606
14.8511854415
13.1643937548
12.2148303808
11.8541256815
12.6742115229
12.4852962142
16.294462293
16.9262960012
16.3657500391
15.7524202083
14.1300814867
14.096815195
15.5646523029
15.5313088425
15.6772917845
16.3413756244
17.370201099
18.7537290838
20.3558266368
22.1286137334
22.4486762281
24.5799084078
26.8153877532
26.7175806754
28.8371696806
30.095516814
30.1631732611
30.8948992649
30.9576312466
31.5673839527
32.3965671564
33.3675164543
34.3779335639
35.3862962513
36.3956202259
37.3943187307
38.3805930686
39.3380819883
40.2203610065
40.9860136336
41.6131783012
42.0859420389
42.3977397874
42.55611063
42.5718414381
42.4491037587
42.182960409
41.7584741677
41.1607026686
40.4047585505
39.5506031199
38.6242278146
37.4226984112
35.6247827964
33.4796153694
32.1788501574
33.209311686
35.2005950424
35.6489942981
35.5901624001
34.8073409638
33.2817311291
30.6171703839
26.7660421566
22.2163578746
28.6802989237
38.5175543198
39.8856790297
35.9521328497
34.5436631212
34.7864414767
35.5020374651
35.967304873
37.5051471555
39.0616189565
39.2738474162
39.6998343966
12.6240899564
12.5705910213
15.3018030147
15.4451140699
15.5146275063
13.4480552425
13.0002982878
15.3898422902
12.9951595661
17.1651425098
17.4929073002
16.8070909245
15.9673022008
14.8290283693
16.4001798826
16.5762970542
15.7811256549
15.9068395996
16.5558830276
17.4539480049
18.6561424806
20.3146485672
23.206393118
24.2656848301
24.1000355379
26.7781209389
28.032339623
28.41912998
29.9997353879
30.8973249964
31.1168967767
30.9921865802
31.7410721779
32.6866807496
33.6561930514
34.6629802809
35.6839549337
36.7256550318
37.7648864858
38.7865949242
39.7954451232
40.7453105851
41.569389835
42.2390677519
42.7557534358
43.1252893869
43.3535016148
43.4453657108
43.4058194719
43.2409935129
42.9593244837
42.5854454222
42.1748824141
41.7661881298
41.2240399329
40.2002987066
38.9578110529
37.7674615203
36.78898524
38.4925340944
36.9607104943
34.5421230788
31.3281375055
27.5472138729
21.9122752164
12.3899177305
10.1107518355
0.000301159886797
1.27152263962e-05
23.1645269157
34.028596915
36.4139302561
32.2469303772
31.3507453081
33.5338759139
37.5167044935
41.0468178185
44.5614021355
44.9311849684
45.3266652384
13.3689566155
13.3257834741
12.9771236675
15.8402875262
16.1276649407
14.3146602475
14.018148994
16.4510073403
13.7498486687
18.0815775382
18.0124493134
17.2587663436
16.2689112555
15.2058472835
17.519187724
17.249168141
16.2979600662
16.3239173559
16.8874585415
17.7078989894
18.6754525629
20.1298165969
23.6000624112
25.2787627954
24.3805985109
26.6699511719
28.4461892116
28.0443867278
29.5608290196
30.527850702
30.5341248826
31.2810664789
32.1221770577
33.0246382002
33.9749402626
34.9919620883
36.0268876535
37.0748951076
38.1578840338
39.2398136605
40.2987108891
41.3083210491
42.2012293927
42.9336440478
43.513474469
43.9607466279
44.277888288
44.457763227
44.5074202555
44.4511401756
44.333695701
44.2438371354
44.2611811678
44.2891448939
43.9173299222
43.4447527207
43.8000719033
35.9038971311
26.726420782
0.00650334435441
2.20442647338e-13
4.47669361422e-17
1.55051257193e-19
1.58195367916e-20
1.25537391901e-21
3.53613504886e-22
4.16229701801e-21
4.25283974783e-20
4.80403158582e-19
1.25476870118e-18
2.08364122772e-15
5.46945626098e-13
4.99096525502e-10
2.58524722965e-07
0.000653423709203
30.2272188887
43.4673924127
47.8014210631
51.6867007988
52.0061519098
14.2871181483
14.3903162934
16.4965013441
16.5573818016
16.6595585286
15.0533080067
15.0905094603
17.3811913502
14.8157388192
18.8963842733
18.5190214654
17.7352451695
16.6477997296
15.6333045817
17.8408797713
17.5521612018
16.8003478553
16.8056731058
17.2718454943
18.0022699234
18.8742071899
20.05144722
23.0670599298
26.0214308194
26.3488266395
26.0894990543
28.5638876213
29.7228304781
28.7486340522
29.3871207731
30.437919987
31.467544217
32.4396144043
33.3791227453
34.3429574212
35.3504173355
36.4028706934
37.48240518
38.5817380882
39.7189666292
40.8502367785
41.9245419583
42.8843796324
43.6911049598
44.3593449301
44.913304263
45.3452518553
45.6309444308
45.7699381079
45.8111301273
45.8752271585
46.1269504741
46.5983988818
46.7892225859
45.8643278254
44.6569523536
28.8213744568
5.25797133751e-23
5.78322321895e-26
1.08414761165e-27
1.83770449686e-29
5.31693506647e-32
1.51095688377e-34
2.61543776735e-39
2.04580318145e-39
4.96673968382e-39
3.34797523292e-38
1.56817290712e-37
5.79283854672e-37
3.68125836874e-36
2.88234312587e-36
2.50058937178e-34
1.42325317527e-31
1.43067313804e-29
1.08563923445e-27
2.4999648227e-25
4.20822747736e-21
29.4517374611
55.5447163497
49.2989825651
15.1521531891
15.3486616631
18.1356062135
17.317521128
16.9043890097
15.780691124
16.118108976
18.1937524697
18.1791156596
19.9138028578
19.1002233359
18.3087167262
17.1159158469
16.1928523202
18.1796191934
17.7721828357
17.2584007533
17.2846301887
17.667095472
18.3025312221
19.1202171475
20.1996370947
22.5709384487
26.2075154635
27.5970415525
25.8934982149
27.9664658307
29.7736846864
30.1148974416
29.6726510501
30.4337107984
31.6165340293
32.7396227413
33.7604520777
34.7153643577
35.7376198034
36.8042285373
37.9191933698
39.0585864794
40.2364700916
41.4402280047
42.5971613704
43.6263385784
44.5035592728
45.2795465746
45.9960260394
46.5982956709
46.9976636466
47.1835095423
47.3046659749
47.5883605285
48.2265273762
49.1524627583
48.6971508616
40.9215851393
17.1239958463
2.90760910418e-29
1.17744137045e-31
3.40496984131e-33
4.95701193056e-35
4.02746744196e-38
6.72021538534e-41
4.73711066641e-42
0
0
0
0
0
0
0
0
6.58851309335e-46
2.2221690685e-43
3.32389127425e-41
1.92841527265e-38
2.69352287023e-35
1.45861147545e-30
2.2150776086e-26
1.72695934886e-19
61.5228766111
15.8511349482
16.0692274589
20.2088382098
17.9155254494
16.9137577762
16.410862734
16.8594907864
18.3584061486
19.742752367
21.061233384
19.8290008484
19.0149776886
17.8278472158
17.0257936058
18.7207493451
18.132059789
17.7789703928
17.7987820716
18.0943726053
18.6353685967
19.3707256154
20.3661347876
22.3289038595
26.0121062507
28.5043575722
28.0080185955
27.4127972538
29.0659864946
29.9143609871
29.7717952825
30.7793263767
31.9727828223
33.1466810931
34.1818681543
35.1699770702
36.162217916
37.249917396
38.3871825114
39.573937004
40.8027771225
42.0669633428
43.3127456957
44.4435194699
45.3971158785
46.2868581142
47.2026286016
48.0226080243
48.5473114292
48.7753428303
48.9625205563
49.4752092765
50.6149247606
51.7926838125
38.6684412726
5.54727742762e-05
4.20955145502e-32
1.38054958985e-35
5.58237236827e-37
7.61139667623e-39
2.08725182442e-41
0
0
0
0
0
0
0
0
0
0
0
0
0
8.48929836822e-45
8.4359641517e-44
1.8493461231e-42
8.9672236228e-41
4.97970504241e-37
4.14492525269e-28
7.99001247004e-33
16.3801172482
16.5913270575
22.1929610345
18.3659803579
17.1199268289
16.9743655753
17.6403654038
17.8781096345
20.6552969445
21.8751850217
20.5184095672
19.7261114451
18.7172661879
18.7869740184
19.4819474828
18.7280769397
18.4864444535
18.495515295
18.6244487357
19.0480987742
19.6681136535
20.5737501162
22.2536848783
25.770292301
28.8290324637
29.543959591
27.4039944649
28.1244596809
28.8806384873
29.782323549
31.0037487597
32.3501692096
33.5510294185
34.6472171099
35.6728756089
36.7180982163
37.7578067244
38.9126681903
40.1323546047
41.400575969
42.7511501619
44.1007069981
45.3291679684
46.3233414811
47.2799874735
48.6666881031
50.2638804909
51.0348346301
50.8116363061
50.8806486294
51.4978783046
52.7883926312
38.5812926057
2.22761934071e-26
3.35731415313e-31
1.50614391556e-42
1.52197708512e-39
2.48344717239e-41
0
0
0
0
0
0
0
0
0
0
0
0
0
0
0
0
0
0
1.31156998268e-43
8.88173529116e-43
1.63786562531e-40
90.6673133994
16.8106629168
16.9890459471
22.0634673916
17.9098906242
17.3579636578
17.4466342653
18.5132810152
17.9523643809
21.432166756
22.6152002685
21.1532620778
20.3686913949
19.4049006816
20.8551642065
20.5129238111
19.5156903342
19.2972691486
19.5082628441
19.3693347045
19.6239778415
20.0583250959
20.8272612965
22.3078014398
25.5113564901
28.6070794857
30.539131814
29.6792009045
29.1552565623
29.4632045713
29.8774103285
31.1641351631
32.8023593209
33.9397745337
35.1240656046
36.3412076829
37.2940087221
38.3460595749
39.5258325927
40.7860028819
42.0907309408
43.4570396738
44.8944005909
46.27155238
47.5505363254
48.8952497525
50.618593071
52.2147314424
52.9207860674
53.3606041136
53.5040726924
53.4597627879
41.971085634
1.0130343563e-25
9.24698071278e-31
1.21535145344e-34
1.65068022249e-36
0
0
0
0
0
0
0
0
0
0
0
0
0
0
0
0
0
0
0
0
0
0
4.03567969314e-43
2.93738408192e-32
17.2793356228
17.4327960388
21.729130466
17.6359930966
17.6422637344
17.8190013482
19.2574570264
18.4245266987
22.1203907554
23.3343820456
21.7651734682
20.984984351
19.9572751295
21.6117423402
21.4487351616
20.3443911591
20.0824750217
20.3791284014
20.2539356785
20.407527287
20.6327648894
21.140084545
22.5158414687
25.3822350765
28.2121641292
30.724088553
30.7562416023
29.7322873726
29.1130031595
30.2182651441
31.4836979343
33.1046972903
34.5634753185
35.9070349495
37.0989104083
37.9822157785
39.0161380599
40.2179076486
41.5176811748
42.8806401537
44.290471362
45.8260544495
47.4652870474
49.1730934817
50.559901203
51.7286640845
53.2364659938
54.7190320411
56.8552207403
57.7739938134
45.8066815584
9.23071299592e-25
1.22566246326e-30
2.11359207841e-34
4.33508619733e-37
1.04960775838e-38
3.52317696694e-41
0
0
0
0
0
0
0
0
0
0
0
0
0
0
0
0
0
0
0
0
0
6.78209545585e-44
8.97333175059e-44
17.9674931941
18.119893093
21.4431892251
17.9092430238
18.1573576803
18.273535217
19.2998618631
19.1089953853
22.6277162742
24.0115317194
22.3921762752
21.6274852338
20.5965967651
22.273704181
22.2637908374
21.2215198251
20.8929452045
21.2053250909
21.1079161581
21.3205605072
21.4511842521
21.5979647372
22.9120518176
25.4583650065
27.9536736903
30.6641205211
31.2255947143
30.5191365483
29.5852103184
30.3160261961
31.8699969231
33.2199636707
34.6059722887
36.1359856646
37.9110538779
38.9450735029
39.9151311919
41.0222151313
42.3063366505
43.7521828901
45.2806547146
46.9538151092
49.0426179632
50.896159744
51.8286000246
52.9472843153
55.0448613794
58.7759466093
65.310254502
50.7706545115
2.6372434509e-25
4.38092440942e-32
1.81292896695e-36
5.94399910227e-40
3.72954066841e-42
7.55947669189e-42
1.16085353663e-42
0
0
0
0
0
0
0
0
0
0
0
0
0
0
0
0
0
0
0
0
0
5.01284579345e-45
2.27618597808e-44
19.0177149265
19.1350347377
21.7501097441
18.7867502182
19.2367107448
19.0770742591
19.6192130131
20.3346408188
22.7254157801
24.5235397862
23.0629085939
22.3203197418
21.3224788955
23.026722612
23.0939526463
22.2326522938
21.8527362093
22.1505141558
21.9596016018
22.3108284899
22.5459893144
22.2502568161
23.3922564466
25.7483291631
27.8972991761
30.4089964523
31.3640039099
31.1565402625
31.3055146728
31.0243132624
32.0756117393
33.7196250274
35.6278441841
36.63796478
38.1991911681
39.8722405883
40.9409242094
42.0985330362
43.3162256965
44.7137653199
46.378119685
48.5808490843
51.1138719445
52.4321395313
53.0105393949
54.6341887763
58.7207730103
64.3633990934
57.4500258344
38.1417477669
6.63733696193e-34
6.19685907121e-39
4.24009525712e-41
0
0
0
0
0
0
0
0
0
0
0
0
0
0
0
0
0
0
0
0
0
0
0
0
0
0
0
20.4946103674
20.3986807293
22.5554005411
20.5526734257
21.0675130765
20.263880267
20.51531859
22.1068413842
22.9574106861
25.1199822989
23.8261757185
23.072741657
22.1090553562
23.8090589283
23.9143064118
23.3375845963
23.2431412453
23.3842572949
22.8971066945
23.3730210471
23.9041397718
23.1715008405
23.7516683746
26.12521967
28.0503966851
30.1761862543
31.3829022242
31.2377084858
32.3708758981
32.4514178814
32.9198331434
33.4041427043
35.3768545164
37.6101346791
39.0491616692
40.601227576
41.962953438
43.1869216248
44.5235099077
45.9549880115
47.9141759318
50.8565814204
53.1667127501
54.0834075025
55.1257898121
58.4934211185
65.3267885627
60.8803417796
35.4845515014
5.92327449427e-36
1.03551340201e-38
4.74148383645e-41
0
0
0
0
0
0
0
0
0
0
0
0
0
0
0
0
0
0
0
0
0
0
0
0
0
0
0
0
22.046686188
21.5700333974
23.4030161783
22.8927703075
22.6685159973
21.6128610196
21.4746855889
23.1572741801
22.2749524776
25.5763908351
24.6643869742
23.8747841086
22.9426959857
24.5862930367
24.6627323151
24.2453611899
25.1248162254
24.8528230338
23.9260678667
24.5119664668
25.1042117747
24.3300263631
23.8430369714
25.9923115455
28.0857983729
29.9457559873
31.2754526905
31.1491757999
32.6318615649
33.5879843656
34.1946300141
34.020137846
35.3464505065
37.468625881
39.8199412534
41.7154912293
43.2005240344
44.4357851243
45.7822147559
47.5160040164
50.3069065927
53.430815813
55.3790389921
56.6289453482
59.0147796024
63.870252911
64.0177217548
34.6167886194
1.59489296754e-35
2.3089440625e-38
8.08636754102e-41
0
0
0
0
0
0
0
0
0
0
0
0
0
0
0
0
0
0
0
0
0
0
0
0
0
0
0
0
0
22.7691174283
22.341108536
23.9018656755
23.8471007852
23.623792022
22.851823961
22.5381858655
24.4060415731
23.2264157881
26.1551287728
25.5055012525
24.6994095679
23.8161376864
25.3670187697
25.3880232256
24.9678848532
25.9938402946
25.8475007009
24.8596296916
25.5705033554
25.709726354
24.9885170704
24.6137714217
24.7919346654
27.3114616662
29.1630571978
30.7975127981
30.8425223325
32.4641433793
33.9445897272
35.1920827043
35.5740897693
35.6232214337
37.337925003
39.8869380416
42.4714901755
44.5430819463
46.0575333978
47.410370805
49.8709954134
53.2805997226
56.1597311265
57.9263176235
59.8799960316
63.3427650511
59.8943918643
38.7073688408
29.1364954403
7.58977178603e-38
2.16160629763e-40
0
0
0
0
0
0
0
0
0
0
0
0
0
0
0
0
0
0
0
0
0
0
0
0
0
0
0
0
0
0
22.7483067884
22.7519791987
24.1413813737
23.9598709252
24.1669888103
23.768004331
23.4296626594
25.6269897247
24.7571158683
26.8711944013
26.3799016726
25.5282200664
24.723680985
26.1662711041
26.1506221847
25.782157123
26.677902993
26.6650543916
25.7842459427
26.4201894323
25.5011273761
25.5377510506
25.4009097787
25.5808570598
26.2951051631
27.3945508057
29.5263871229
30.1776549459
31.7251893028
33.6512997412
35.364858959
36.688480875
36.9026828793
37.8962441181
39.9180708995
42.5622809898
45.4019189583
47.7468437782
49.6964522455
52.9179957407
56.40126825
58.9182366785
60.520050243
62.5796107098
58.3705735039
39.8162532497
41.0143995368
2.63634951479e-37
5.90566953244e-40
0
0
0
0
0
0
0
0
0
0
0
0
0
0
0
0
0
0
0
0
0
0
0
0
0
0
0
0
0
0
0
22.8398380316
22.9742427755
24.2951659425
22.9983173705
24.3164279088
24.1999641392
23.9641320938
26.120568317
25.4655018809
27.5539369025
27.2500651314
26.3243878585
25.6697882646
26.9714408467
26.9295373108
26.7102874506
27.4547309508
27.5856527955
26.8352317263
27.6449165682
26.6440692997
26.9115063548
26.4462255501
26.6905364707
27.8000099108
28.3491408228
28.6672192093
29.3401282847
30.8048504082
33.0994376317
34.8736146617
36.5247684268
37.7821402143
38.6807035561
40.8295143548
43.0482642376
46.0293643587
49.2730960199
52.4723419463
56.287113015
59.5285089118
61.5125705341
61.781683647
60.2350623893
61.3093620117
37.1848648072
2.21222998306e-36
5.036249807e-39
0
0
0
0
0
0
0
0
0
0
0
0
0
0
0
0
0
0
0
0
0
0
0
0
0
0
0
0
0
0
0
0
23.3391249781
23.4397665782
24.4372661994
23.2133190693
24.4093605357
24.3530270312
24.2658018592
26.1833937485
25.8854587162
28.0011598883
28.0589144822
27.0274332678
26.6397717161
27.727666127
27.635105569
27.5825832452
28.1802452507
28.5699140392
27.928134195
28.8973489019
28.2198331635
28.7015355833
28.5426611363
27.4953185893
28.3612407871
29.1298672436
29.2996200847
28.5026961254
29.6918904733
32.3721851118
34.3924861711
35.6378920548
37.0716651995
38.461006059
40.8157718874
43.3958237156
46.6858724679
50.7645886537
55.4381542773
59.8543374093
62.5576712622
63.4317226514
62.260934137
57.6817644928
37.7989463176
52.5772387903
3.50945685451e-38
1.42309255698e-40
0
0
0
0
0
0
0
0
0
0
0
0
0
0
0
0
0
0
0
0
0
0
0
0
0
0
0
0
0
0
0
0
23.996148054
25.0182569056
24.69020396
23.9353660407
24.7327548258
24.5268428025
24.5160205411
26.1797081843
26.229434714
28.0820990963
28.799018837
27.5963423898
27.4466811701
28.2768938632
28.2311222326
28.1690294503
28.351524398
29.4102219216
29.041149618
29.933380429
29.8746345649
29.8076543584
29.6685102927
29.2313743174
28.4056605601
28.8587272909
29.6448757162
27.2370500001
28.2565972753
30.8614969464
33.6514943601
35.323609731
36.8020668036
37.5797356239
39.8745102576
42.9939608111
46.8443251293
52.0858306481
58.4523849017
63.4439384561
65.3710752586
62.955757402
61.7817803081
66.0146920499
44.8206939176
2.3787416909e-37
6.07112094579e-40
0
0
0
0
0
0
0
0
0
0
0
0
0
0
0
0
0
0
0
0
0
0
0
0
0
0
0
0
0
0
0
0
0
24.4036350579
25.4775935656
25.128397976
24.5283511099
25.1610299661
24.8243652814
24.7912846548
26.209675753
26.5278669858
27.8665570423
29.3976519496
28.0785970327
27.8258192301
28.6380898128
28.8093759178
28.6092999174
28.3937973131
29.9239743059
30.1306615044
30.7682637174
30.9149206924
31.1171710379
30.0149487239
29.9452355047
29.248810052
29.9083803979
30.2946380878
27.8608998606
26.4818329099
28.5468026631
31.6726120799
34.3092902358
36.0141997179
36.9234118236
38.1980507992
41.478020643
45.9666191919
52.8807135294
61.3404710496
67.1787548811
67.5840177572