/*--------------------------------*- C++ -*----------------------------------*\
| =========                 |                                                 |
| \\      /  F ield         | OpenFOAM: The Open Source CFD Toolbox           |
|  \\    /   O peration     | Version:  v1806                                 |
|   \\  /    A nd           | Web:      www.OpenFOAM.com                      |
|    \\/     M anipulation  |                                                 |
\*---------------------------------------------------------------------------*/
FoamFile
{
    version     2.0;
    format      ascii;
    class       volVectorField;
    location    "183";
    object      U;
}
// * * * * * * * * * * * * * * * * * * * * * * * * * * * * * * * * * * * * * //

dimensions      [0 1 -1 0 0 0 0];


internalField   nonuniform List<vector> 
6400
(
(-8.07479805666e-05 -0.000109638525007 0)
(-0.000224418783572 -8.75001328332e-05 0)
(-0.000330803904123 -7.40219764455e-05 0)
(-0.000457893862801 -6.77650335363e-05 0)
(-0.000547034481862 -3.93783168242e-05 0)
(-0.000607547849856 -1.48578027074e-05 0)
(-0.000624967501816 -6.13708768695e-06 0)
(-0.000632936246094 -1.94895040756e-05 0)
(-0.000717169621559 -3.51417452061e-05 0)
(-0.000808670745236 -3.26269598785e-05 0)
(-0.000820631518639 -2.86661545591e-05 0)
(-0.000906882012001 -3.49424265327e-05 0)
(-0.000979460151701 -3.14713038502e-05 0)
(-0.00103615236847 -2.2834176256e-05 0)
(-0.00106822854 -1.81987589466e-05 0)
(-0.00110436927694 -2.26623589073e-05 0)
(-0.00116003311221 -2.40103296054e-05 0)
(-0.00120222464665 -1.9027642348e-05 0)
(-0.00122226840017 -1.01736589705e-05 0)
(-0.00123251384773 -3.41762537797e-06 0)
(-0.00125265075483 -1.02231356615e-05 0)
(-0.0012905115219 -2.01907015298e-05 0)
(-0.00133998251822 -2.42160726304e-05 0)
(-0.00138541367628 -2.60143004584e-05 0)
(-0.00143053939855 -2.40021722719e-05 0)
(-0.00147197035298 -1.96388967029e-05 0)
(-0.00151496437004 -1.89029819623e-05 0)
(-0.00155436454284 -1.68503041572e-05 0)
(-0.00158371514809 -1.27587494592e-05 0)
(-0.00160466246545 -9.41609503129e-06 0)
(-0.00161674683442 -9.77357484723e-06 0)
(-0.00163404060019 -8.74960988027e-06 0)
(-0.00165100440245 -4.45743376186e-06 0)
(-0.00165863066794 -4.1917592356e-06 0)
(-0.00166126467744 -2.50263820527e-06 0)
(-0.00167526923636 -1.2955011369e-06 0)
(-0.00168903887161 -3.40209962954e-06 0)
(-0.00166721422542 -1.97575905799e-06 0)
(-0.00167433458494 8.92759004058e-07 0)
(-0.00169702579322 -2.70997434982e-06 0)
(-0.0017221625107 -2.1444330096e-05 0)
(-0.00174474585439 -2.77476297285e-05 0)
(-0.00176229171804 -6.92012708027e-06 0)
(-0.0017644461806 5.53668808014e-06 0)
(-0.00175204018111 1.02852906036e-05 0)
(-0.0017335566138 1.5265737788e-05 0)
(-0.00170715860858 1.91630189613e-05 0)
(-0.0016708108187 2.37920168015e-05 0)
(-0.00162693468713 2.61810154158e-05 0)
(-0.00158015111014 1.90866550023e-05 0)
(-0.00154045324335 4.1701368962e-06 0)
(-0.00154661149286 6.08626259793e-06 0)
(-0.00149694424752 4.41092865094e-05 0)
(-0.00142551912213 5.76844531712e-05 0)
(-0.00131984619633 6.46907148625e-05 0)
(-0.00114533125994 8.18231651335e-05 0)
(-0.000981154962761 7.04246870911e-05 0)
(-0.000858642426352 5.76297176564e-05 0)
(-0.000747948672712 6.78401960158e-05 0)
(-0.000559851377969 7.37147487538e-05 0)
(-0.000388254202386 7.77076072107e-05 0)
(-0.000198974946718 0.000103447172745 0)
(5.5057118016e-05 0.000135265081318 0)
(0.000312271579928 9.77908189879e-05 0)
(0.000443934781034 6.09596854713e-05 0)
(0.000527409496567 4.40870154136e-05 0)
(0.000595381637764 3.27482537408e-05 0)
(0.000661414371426 2.63060966966e-05 0)
(0.000723985624807 2.14245377688e-05 0)
(0.00076430363658 1.38409291887e-05 0)
(0.000788262264009 4.08707696878e-06 0)
(0.000775538543049 -7.86556581878e-06 0)
(0.000731650633254 -2.28141895823e-05 0)
(0.000702106516619 -4.22739148272e-05 0)
(0.000567286644082 -4.35683960096e-05 0)
(0.000522931948264 -4.58651338054e-05 0)
(0.000361954068958 -3.13466007658e-05 0)
(0.000385674196652 -5.05198703577e-05 0)
(0.000170220853694 -3.92283640089e-05 0)
(0.000127397906817 -7.59671700099e-05 0)
(-2.8979822026e-05 -0.000148477878238 0)
(-0.000124932219656 -0.000170538809259 0)
(-0.000219813392435 -0.000160113345904 0)
(-0.000277961194096 -0.000127372248325 0)
(-0.000416629054693 -0.000126781613763 0)
(-0.000561676446475 -8.91208788512e-05 0)
(-0.000648672850316 -4.89951186999e-05 0)
(-0.000701419289433 -7.07698149949e-05 0)
(-0.00075574964381 -0.00010138640845 0)
(-0.000818930708797 -9.85254091914e-05 0)
(-0.000879317119004 -9.28870484197e-05 0)
(-0.000933637584407 -9.54623306733e-05 0)
(-0.000983174631849 -8.42644247161e-05 0)
(-0.00102764899318 -6.70593618508e-05 0)
(-0.00107399458152 -5.8408958816e-05 0)
(-0.00111886743131 -7.59879653175e-05 0)
(-0.0011639529075 -8.02359777041e-05 0)
(-0.00119263472348 -3.98797937833e-05 0)
(-0.00115048766633 -1.28551823283e-05 0)
(-0.00117234423964 -1.03627806223e-05 0)
(-0.00120994263795 -3.50410514554e-05 0)
(-0.00126437933143 -7.28557087574e-05 0)
(-0.0013403660577 -8.59927639963e-05 0)
(-0.00140105489183 -7.49272780962e-05 0)
(-0.00141506043674 -6.66502370577e-05 0)
(-0.0014744447786 -6.47089200294e-05 0)
(-0.00152455743095 -5.85819551819e-05 0)
(-0.0015568113638 -4.81327193471e-05 0)
(-0.00158216945074 -3.73755927685e-05 0)
(-0.00160346658621 -2.85132463434e-05 0)
(-0.00162148071989 -2.56899388857e-05 0)
(-0.00161704216847 -2.11567864058e-05 0)
(-0.0016319766054 -7.80568485703e-06 0)
(-0.00163333155762 -9.86712295978e-06 0)
(-0.00162382679765 -1.40369268369e-05 0)
(-0.00166503293127 -2.2364883e-06 0)
(-0.00165746669644 -6.97783363205e-06 0)
(-0.00164112234761 -1.51369789858e-05 0)
(-0.0016659877783 -1.14881160878e-05 0)
(-0.00171890257757 -8.72236812189e-06 0)
(-0.00175023431814 -2.12205675668e-06 0)
(-0.0015613751562 4.76598167948e-06 0)
(-0.00150672344132 7.72305860235e-06 0)
(-0.00151626530999 9.8094813652e-06 0)
(-0.00151323974099 1.25236939563e-05 0)
(-0.0015253824176 1.75868967255e-05 0)
(-0.00154341427253 2.62984257588e-05 0)
(-0.00154229660786 3.70578837385e-05 0)
(-0.0015522625515 4.8350442407e-05 0)
(-0.00154259226322 5.59829835034e-05 0)
(-0.00148523915438 5.48111417811e-05 0)
(-0.00136849750028 5.48804320714e-05 0)
(-0.00126063257645 6.39532615896e-05 0)
(-0.00142406508936 0.000109339015452 0)
(-0.00129273848253 0.000163271424701 0)
(-0.00119141754386 0.000194940179074 0)
(-0.00116651306838 0.000204650281687 0)
(-0.0010429453716 0.000206317012631 0)
(-0.000887169501543 0.000237533173691 0)
(-0.000714704280625 0.000283375281 0)
(-0.000509561934066 0.00032936427712 0)
(-0.000211267641088 0.000310837304294 0)
(4.12668341011e-05 0.000398188410409 0)
(0.000298973818665 0.000304613095476 0)
(0.000436973234093 0.000192751128273 0)
(0.000501562802746 0.000120489357576 0)
(0.000558843756028 9.48683426703e-05 0)
(0.000652528582175 8.89248711492e-05 0)
(0.000720276014648 7.2052857743e-05 0)
(0.000774005756373 4.45397880575e-05 0)
(0.000789749440675 6.97616728943e-06 0)
(0.000769417078619 -3.39901971066e-05 0)
(0.000707284214774 -6.31601528861e-05 0)
(0.000693920364047 -9.64118063794e-05 0)
(0.000636927851892 -0.000118212843096 0)
(0.000571065472807 -0.000130598924428 0)
(0.000487542046462 -0.000127220447292 0)
(0.000398557992344 -0.000152967536049 0)
(0.000251706502026 -0.000178329087845 0)
(0.000118043258707 -0.000302180470578 0)
(-4.5473622668e-05 -0.000256079772933 0)
(-0.000123411296148 -0.000286482548974 0)
(-0.000189257238475 -0.000272767849802 -1.0005312015e-28)
(-0.00034080026005 -0.000288912988541 9.81649182143e-29)
(-0.000490486395779 -0.000296463218079 9.1997805779e-29)
(-0.0005713637711 -0.000237697513677 -8.53857118077e-29)
(-0.000622327775553 -0.000115343486607 8.74862975452e-29)
(-0.000678113379973 -0.000127829803912 -8.85411801084e-29)
(-0.000737070622777 -0.000161198957641 0)
(-0.000805841804275 -0.000166894188123 0)
(-0.00087409899213 -0.00015724789682 0)
(-0.000931270966458 -0.000145107006743 0)
(-0.000981123618829 -0.000127875491748 0)
(-0.00102375523674 -0.000115258046223 0)
(-0.00106555406548 -0.000103027712032 0)
(-0.00110551014825 -7.61407114859e-05 0)
(-0.000931637701858 -3.70006465033e-05 0)
(-0.000883608858435 -1.524773181e-05 0)
(-0.000906448193939 -2.4399142629e-05 0)
(-0.000974860187955 -7.04977653299e-05 0)
(-0.00117965725268 -0.000129701251513 0)
(-0.00130050598221 -0.000154001363814 0)
(-0.0013129306161 -0.000142517162561 0)
(-0.00137607752426 -0.000126812227784 0)
(-0.00144275879446 -0.000117422340454 0)
(-0.00148438266466 -0.00011004727011 0)
(-0.00151829520907 -9.39084013782e-05 0)
(-0.00155056030511 -7.60006918985e-05 0)
(-0.00157625844043 -5.97472260391e-05 0)
(-0.00159083321988 -4.71760573885e-05 -2.02223015447e-28)
(-0.00161594781825 -3.50228202309e-05 1.96927892628e-28)
(-0.00159613006317 -2.53734286798e-05 0)
(-0.00159759889709 -1.20959046734e-05 0)
(-0.00164268936685 3.62028652215e-06 0)
(-0.0015504762316 -1.31241063312e-05 0)
(-0.00158556828638 -2.03462176967e-05 0)
(-0.00166477828222 -7.43893332328e-06 0)
(-0.00157994500509 -2.33332248918e-05 0)
(-0.00162883544872 -4.91889685446e-05 0)
(-0.00171352503721 -4.0957323572e-05 0)
(-0.00176143678396 1.30394561384e-05 0)
(-0.00176919730523 4.69822136676e-05 0)
(-0.0017706135918 3.07953437583e-05 0)
(-0.00176649162126 1.84261503868e-05 0)
(-0.0017540479626 1.77567853687e-05 0)
(-0.0017359323388 2.21013464293e-05 0)
(-0.00171343816148 3.37962314827e-05 0)
(-0.0016871394379 4.846109562e-05 0)
(-0.00165756736232 6.64324507068e-05 0)
(-0.00162548231286 9.20021427407e-05 0)
(-0.00159229916534 0.000118575401973 0)
(-0.00155416892172 0.000130392434883 0)
(-0.00149780200527 0.000118322544183 0)
(-0.00139623283113 0.000158401069219 0)
(-0.00127635574595 0.000221951000975 0)
(-0.00124563619713 0.000261906653955 0)
(-0.00116530958588 0.000296086009944 0)
(-0.00103515416145 0.000342559997689 0)
(-0.000877245347126 0.00040057876774 0)
(-0.000696305296423 0.000471190804316 0)
(-0.000490305949026 0.000547942124109 0)
(-0.000260494216768 0.000630411384956 0)
(5.56594366903e-06 0.00069515983855 0)
(0.000232775986484 0.000484480823152 0)
(0.000362401008758 0.000291856777457 0)
(0.000477532168845 0.000212202673646 0)
(0.000578992518116 0.000180531584431 0)
(0.000650100321507 0.000155068098074 0)
(0.000707973816016 0.000117876658559 0)
(0.000747633506836 6.6903382482e-05 0)
(0.000759212195515 9.29054561053e-06 0)
(0.000755868098191 -4.22787675547e-05 0)
(0.000766615194198 -8.45291056847e-05 0)
(0.000751080797591 -0.000139358859864 0)
(0.000680172956564 -0.000192240175832 0)
(0.000588322164901 -0.000216824053758 0)
(0.000489145879242 -0.000226876744561 0)
(0.000390583903461 -0.000286384269696 0)
(0.00027529484978 -0.000412823345813 0)
(7.31972871415e-05 -0.000428303377007 0)
(-4.69017155157e-05 -0.000393156816541 0)
(-5.28191240908e-05 -0.000252862632696 0)
(-0.000158112293037 -0.000422461480739 0)
(-0.000309244604006 -0.000439222675845 0)
(-0.000415085220408 -0.000366319476216 0)
(-0.00021237913547 -0.000125087851645 0)
(-0.000261473588609 -0.000124868291896 0)
(-0.000523201261707 -0.000250681134549 0)
(-0.000685277109308 -0.000279271591218 0)
(-0.000773845416432 -0.000252091287009 0)
(-0.000859687658945 -0.000230627007197 0)
(-0.000926739980055 -0.000205062560355 0)
(-0.000978503900219 -0.000175842827993 0)
(-0.00100365557733 -0.00012407974657 0)
(-0.000896218900003 -5.39904233496e-05 0)
(-0.000820686406696 -1.00418691811e-05 0)
(-0.00081206691043 -3.35684041565e-06 0)
(-0.000868293039201 -4.741335094e-05 0)
(-0.00101934062464 -0.000124341497746 0)
(-0.0012025020607 -0.000215795903172 0)
(-0.00124252636897 -0.000237164604493 0)
(-0.00128757954293 -0.00021638663514 0)
(-0.00134844773053 -0.000198099380898 0)
(-0.00139881205834 -0.000184592450776 0)
(-0.00144019965663 -0.000166226112886 0)
(-0.00147597535674 -0.000145293168554 0)
(-0.00150514444055 -0.000124665757704 0)
(-0.00154504491489 -0.000103082621298 0)
(-0.0015578549489 -8.13352702523e-05 0)
(-0.00159418879802 -6.21925620396e-05 0)
(-0.00157520917906 -4.37729890925e-05 0)
(-0.00161364084126 -2.28266554928e-05 0)
(-0.00155078813835 1.01334895698e-06 0)
(-0.00155517952424 4.75251245361e-06 0)
(-0.001632099393 -8.89423018621e-06 0)
(-0.00155327840726 -3.53452519668e-05 0)
(-0.00162490797115 -4.57173773399e-05 0)
(-0.0017187898707 -5.99654858969e-05 0)
(-0.00173998757692 -8.43616862522e-05 0)
(-0.00174605685727 -6.75137380927e-05 0)
(-0.0017561546943 -1.74093340087e-05 0)
(-0.00176508893316 2.03249812655e-05 0)
(-0.00176886559397 2.84918975834e-05 0)
(-0.00176552761373 2.92799799325e-05 0)
(-0.00175438755636 3.4419413304e-05 0)
(-0.00173749234864 4.44366524781e-05 2.06052446346e-28)
(-0.00171620945697 5.92045258157e-05 -2.0743473404e-28)
(-0.00169112281214 7.72964788223e-05 0)
(-0.00166254785974 9.87110425849e-05 0)
(-0.00163062208336 0.000123752366955 0)
(-0.00159462739211 0.000149202147006 0)
(-0.00155026658324 0.000172492667158 0)
(-0.0014912485865 0.000201473561954 0)
(-0.0014176147637 0.000250991200015 0)
(-0.00134027435562 0.000298423825456 0)
(-0.0012596268118 0.000343824426386 0)
(-0.00115933452961 0.000410875847402 0)
(-0.00102753134922 0.000490750089232 3.81922846736e-28)
(-0.0008642659018 0.000578836350671 -4.28061320409e-28)
(-0.000674560942077 0.000673612461481 0)
(-0.000465097963905 0.000764935271656 0)
(-0.000248552745139 0.000841634529928 0)
(-5.29691034581e-05 0.000862131074328 0)
(0.000158865600668 0.00068791127847 0)
(0.000358375145853 0.000466894245385 0)
(0.000468566056944 0.00031996839708 0)
(0.000559046878096 0.000256834775867 0)
(0.000643337704172 0.000217189230584 0)
(0.000711179214116 0.000166014737102 0)
(0.000773740933226 0.000100602721801 0)
(0.000815439265469 3.08510927858e-05 0)
(0.000837324143204 -3.51538181324e-05 0)
(0.000814386408475 -0.000115390120809 0)
(0.000712649585549 -0.000199609729455 0)
(0.000628899052946 -0.0002686041822 0)
(0.000545679279475 -0.00032306405896 0)
(0.000429062835099 -0.000351837409288 0)
(0.000262653974552 -0.000340694345909 0)
(0.000194208770047 -0.00047951433875 0)
(6.63310122366e-05 -0.000576097881889 0)
(-2.11425127073e-06 -0.000382229979182 0)
(-2.35337153534e-05 -0.000309338665536 0)
(-0.000149541711332 -0.000571947271001 0)
(-0.000262398568291 -0.000523156930701 0)
(-0.00025517736601 -0.000313152666724 0)
(-0.000193169563762 -0.000164824794446 0)
(-0.000336254701669 -0.000285564170084 0)
(-0.000564536816932 -0.00044528483949 0)
(-0.000643306469052 -0.000401081795022 0)
(-0.000740829016878 -0.000348052506113 0)
(-0.000829887186577 -0.000319508489667 0)
(-0.000899783625056 -0.000269787040584 0)
(-0.0008762530019 -0.000159286260112 0)
(-0.000764582404324 -5.77688864977e-05 0)
(-0.000777790991766 -1.83130641509e-05 0)
(-0.000827960798922 -2.72369954937e-05 0)
(-0.000927642804785 -8.17700596591e-05 0)
(-0.00107314325548 -0.000177808303786 0)
(-0.00118590663684 -0.000257953792733 0)
(-0.00118845434115 -0.000268653140709 0)
(-0.00123273306507 -0.000272993815444 0)
(-0.00130060613784 -0.000273432623787 0)
(-0.00134951350441 -0.000254442102048 0)
(-0.00139450212499 -0.000228753467501 0)
(-0.00143249483858 -0.000203109364843 0)
(-0.00146233107833 -0.000180314224747 0)
(-0.00150612496336 -0.000155080078431 0)
(-0.00151192623418 -0.000127674990449 0)
(-0.0015653593078 -0.000101676030686 0)
(-0.0015361390544 -7.31403873557e-05 0)
(-0.00160158655758 -4.73096407339e-05 -1.91575037278e-28)
(-0.0015046400487 -1.96472515033e-05 1.72331137824e-28)
(-0.0015752658575 -4.84990954671e-06 0)
(-0.0016264337474 4.48204405887e-07 0)
(-0.00156163916307 -2.25031715883e-05 0)
(-0.00166388644026 -6.89245379751e-05 0)
(-0.00170402250526 -0.000106686723879 0)
(-0.00173303521128 -0.00010705794189 0)
(-0.00174645524377 -9.24888336713e-05 0)
(-0.00175182421389 -6.59240922745e-05 0)
(-0.00176000156705 -2.62784633977e-05 0)
(-0.0017681351783 8.3682196795e-06 0)
(-0.00177143602801 2.6671346783e-05 0)
(-0.00176799393952 3.73637254962e-05 0)
(-0.00175756971308 4.89636040012e-05 0)
(-0.0017416906446 6.38883595645e-05 0)
(-0.00172138291659 8.24641781068e-05 0)
(-0.00169711070703 0.000104212363714 0)
(-0.00166894260632 0.000129317960298 0)
(-0.00163653871988 0.000158139402469 0)
(-0.00159878984695 0.000189988647975 0)
(-0.00155284235489 0.000225051362262 0)
(-0.00149569706952 0.000266844756451 0)
(-0.0014276480913 0.000318557841547 0)
(-0.00135203521302 0.000374954073657 0)
(-0.00126642055368 0.000443603096266 0)
(-0.00116003917143 0.000535196503127 0)
(-0.00102328737143 0.00064460536051 0)
(-0.00085397698821 0.000761115458211 0)
(-0.000659429965732 0.000874494543915 0)
(-0.000453312962348 0.000972389802272 0)
(-0.000255230669259 0.00104103744994 0)
(-0.000100776107942 0.00103041295579 0)
(0.000109279314065 0.0009172562536 0)
(0.000346663409599 0.000669617738389 0)
(0.00047791430204 0.000453139686953 0)
(0.000577733376641 0.000352528384494 0)
(0.000661042322169 0.000291478053572 0)
(0.000732057325782 0.000226942504061 0)
(0.000805533842066 0.000152925924433 0)
(0.000876024444291 6.57792639371e-05 0)
(0.000880501975183 -5.40059775815e-05 0)
(0.000775199770739 -0.000181260558501 0)
(0.000694103779809 -0.000283857570955 0)
(0.000616137084293 -0.000370419926219 0)
(0.000518957502681 -0.000445638274199 0)
(0.000380175650081 -0.000454736700685 0)
(0.000256098188005 -0.000458759724633 0)
(0.000174993835339 -0.000623916252421 0)
(4.92936824496e-05 -0.000673230794703 0)
(2.47332147577e-06 -0.000352469408681 0)
(-3.28552819872e-05 -0.000379614355549 0)
(-0.000154445678206 -0.000651712660596 0)
(-0.000207174169899 -0.00051261075845 0)
(-0.000145515274152 -0.000234362691152 0)
(-0.000196281741306 -0.00023986445349 0)
(-0.000455755307472 -0.000497935565034 0)
(-0.000553914782122 -0.000541743170807 0)
(-0.000617108084161 -0.000487409311569 0)
(-0.000698764640873 -0.000439016655363 0)
(-0.000777103109545 -0.00036825227056 0)
(-0.000678746397408 -0.00021838642464 0)
(-0.000604924318711 -9.59089628286e-05 0)
(-0.000657008796067 -6.26047924098e-05 0)
(-0.000721530923023 -7.66979511547e-05 0)
(-0.000857140707689 -0.000138385532888 0)
(-0.00102199424816 -0.000226561087525 0)
(-0.00113585412685 -0.000280706170608 0)
(-0.00111093893644 -0.000273217150441 0)
(-0.00116927206847 -0.000302467349059 0)
(-0.00125114143222 -0.000335408556234 0)
(-0.00129852424938 -0.0003273270715 0)
(-0.00134206286489 -0.000301381555378 0)
(-0.00137981358633 -0.00027194267362 0)
(-0.00143047960867 -0.000244124113927 0)
(-0.00146108279475 -0.000207672391652 0)
(-0.0014452354144 -0.000178152544062 0)
(-0.00153031374242 -0.000153701120453 0)
(-0.00147072807849 -0.000112349871578 0)
(-0.00157384864072 -7.67121519923e-05 0)
(-0.00143154389164 -3.56466916501e-05 0)
(-0.00155898237782 -2.76154812887e-05 0)
(-0.00144529544918 -2.46460533023e-05 0)
(-0.00154964646288 -3.27025977344e-05 0)
(-0.00165537855347 -7.45558934866e-05 0)
(-0.00170186176499 -0.000126384271627 0)
(-0.00172474695598 -0.000135981543923 0)
(-0.00174048229131 -0.000123153877195 0)
(-0.00175024545444 -0.000100374185057 0)
(-0.00175790659183 -7.06658567569e-05 0)
(-0.00176580478076 -3.45640044755e-05 0)
(-0.00177279132411 -3.29036063754e-07 0)
(-0.00177562606922 2.49976886118e-05 0)
(-0.00177211758834 4.41713581677e-05 0)
(-0.00176235083976 6.24331354731e-05 0)
(-0.00174717733059 8.24717776952e-05 0)
(-0.00172756004703 0.000105192497452 0)
(-0.00170371011908 0.000130862654887 0)
(-0.00167537486446 0.000160065207514 0)
(-0.00164216696895 0.000193548845974 0)
(-0.00160329679072 0.000231838018487 0)
(-0.00155713865036 0.000275859859871 0)
(-0.00150214344824 0.000327248844116 0)
(-0.00143793703846 0.000387153234602 0)
(-0.0013639836326 0.000457228541826 0)
(-0.00127580388592 0.000546713830175 0)
(-0.00116476391553 0.000663098903827 0)
(-0.00102466047735 0.000800375133125 0)
(-0.000856459282858 0.000944118264567 0)
(-0.000664398692121 0.00107142313916 0)
(-0.00047001882196 0.0011657004418 0)
(-0.0002955205914 0.00119197265283 0)
(-0.000127747772546 0.00108190076404 0)
(7.01296007603e-05 0.00119629215095 0)
(0.000293672448178 0.000848708713058 0)
(0.000440587105347 0.000581524467822 0)
(0.000572725159102 0.000455335721348 0)
(0.000686270326998 0.000376608183587 0)
(0.000776511337058 0.000301696297184 0)
(0.000884366311886 0.000220232515209 0)
(0.000952378378719 7.95230858951e-05 0)
(0.000869423534371 -0.000108006063357 0)
(0.000772812090353 -0.000256047691208 0)
(0.000711365825812 -0.000373336079251 0)
(0.000617641259719 -0.000477237309618 0)
(0.000519338027837 -0.000566954267034 0)
(0.000372009863929 -0.000549363233937 0)
(0.000261183776528 -0.000566914843355 0)
(0.000175620648509 -0.000738663875852 0)
(5.33604251664e-05 -0.000769647902257 0)
(-1.22711840208e-05 -0.00038264974627 0)
(-8.58019938262e-05 -0.000507520156636 0)
(-0.00021033194732 -0.000710687118455 0)
(-0.000225157536341 -0.00064060329684 0)
(-0.000136262911775 -0.000290135075166 0)
(-0.000299061358054 -0.000444315818607 0)
(-0.000495331327648 -0.000630117143998 0)
(-0.000534126512638 -0.000604550980343 0)
(-0.000597000843907 -0.00054909969663 0)
(-0.000622442125682 -0.000483001997326 0)
(-0.000731488953212 -0.000385636849192 4.00387610314e-28)
(-0.00052236790498 -0.000151481687687 -2.12319943663e-28)
(-0.000611049908775 -0.000122278287976 0)
(-0.000646423320484 -0.000127387335849 0)
(-0.00076060653996 -0.000189488870104 0)
(-0.000941158698575 -0.000299711062761 0)
(-0.0010671598178 -0.000343766837782 0)
(-0.00101266455702 -0.000289925593998 0)
(-0.00108052969957 -0.000313645202832 0)
(-0.0011920168022 -0.000379459975035 0)
(-0.00123908475464 -0.000394091263687 0)
(-0.00129031796206 -0.000375619313378 0)
(-0.00133648817677 -0.00034668504883 0)
(-0.00137794791295 -0.000311343695924 0)
(-0.00139807768033 -0.000268015995301 0)
(-0.00139339964489 -0.000221137668417 0)
(-0.00146752539298 -0.000197857913857 0)
(-0.00138694904092 -0.000165264721282 0)
(-0.00152483148165 -0.000127067365049 0)
(-0.00137049345189 -5.38518115137e-05 0)
(-0.0015067350183 -4.19249437568e-05 0)
(-0.00141432157573 -4.86336207614e-05 1.61377635091e-28)
(-0.00152950358653 -5.42130014798e-05 -1.76741381296e-28)
(-0.00155187347796 -0.000104709415934 0)
(-0.00169406822898 -0.000156923455585 0)
(-0.00171913512703 -0.000165387578788 0)
(-0.00173260104818 -0.000154272502359 0)
(-0.00174426042318 -0.000134354177685 0)
(-0.00175575525453 -0.000108438830647 0)
(-0.00176544336874 -7.7412526425e-05 0)
(-0.00177323909769 -4.20150908756e-05 0)
(-0.00177951519439 -6.71051301472e-06 0)
(-0.00178185668694 2.40159635475e-05 0)
(-0.00177830740049 5.03422041547e-05 0)
(-0.00176884664416 7.50475261804e-05 0)
(-0.00175414744702 0.000100392957957 0)
(-0.00173483857651 0.000127646172297 0)
(-0.00171083410616 0.000157674317986 0)
(-0.00168178990854 0.000191416700134 0)
(-0.00164759284892 0.000229892222796 0)
(-0.00160801165428 0.000274106863729 0)
(-0.0015622779198 0.000325178525348 0)
(-0.00150947030586 0.000384466196582 0)
(-0.00144847046558 0.000454186802359 0)
(-0.00137675086785 0.000539721378859 0)
(-0.00128898412973 0.000650540365149 0)
(-0.00117816830547 0.000791252744084 0)
(-0.00104007236414 0.000953518027232 0)
(-0.000875332661884 0.00111847210621 0)
(-0.000692214366233 0.00125885800619 0)
(-0.000511324209526 0.00133624776548 0)
(-0.000354306609877 0.00134482941045 0)
(-0.000192478891279 0.00137544010902 0)
(-2.94568964979e-05 0.00136555509289 0)
(0.000207649689748 0.00103088899251 0)
(0.000401222369734 0.000724323644227 0)
(0.000591287867205 0.000609794913196 0)
(0.000759037248311 0.000516799798187 0)
(0.000889218605734 0.000415288265789 0)
(0.000993273346418 0.000275045336086 0)
(0.000992265969669 4.83084674195e-05 0)
(0.000885149583947 -0.000173052284778 0)
(0.000824410420279 -0.000336489076697 0)
(0.00074323033946 -0.000469308517215 0)
(0.000645597587674 -0.000591748257579 0)
(0.000525476431251 -0.000656762429184 0)
(0.000407574802119 -0.000675183685561 0)
(0.00027015000822 -0.000680422494018 0)
(0.00017763044823 -0.000840257872352 0)
(6.13870315855e-05 -0.000894746039707 0)
(-2.65487879878e-05 -0.000447787989298 0)
(-0.000130161299395 -0.000641045066278 0)
(-0.000241670311974 -0.000730500350979 0)
(-0.000133057939806 -0.000392212021313 0)
(-0.000142867771678 -0.000365794117678 0)
(-0.000373994772333 -0.000657563422495 0)
(-0.000458945207435 -0.000693796356474 0)
(-0.000521734939658 -0.000666505432808 0)
(-0.000542116146063 -0.000577398241555 0)
(-0.000602327838884 -0.000512601344208 0)
(-0.000455550009098 -0.000265266980541 0)
(-0.000527187491759 -0.00018104858834 0)
(-0.000596784533813 -0.000177675892167 0)
(-0.000646035338712 -0.000211848075994 0)
(-0.00083721837619 -0.000339255198345 0)
(-0.000989397591387 -0.000417426036584 0)
(-0.000928234352754 -0.00034429181926 0)
(-0.000977651867561 -0.000332490983274 0)
(-0.00110669049579 -0.000406614671795 0)
(-0.00118439145856 -0.000449670804533 0)
(-0.00122316509388 -0.000443604857185 0)
(-0.0012644220703 -0.000420897384341 0)
(-0.00132227717779 -0.000395976705671 0)
(-0.00136064947231 -0.000353291233586 0)
(-0.00141389073385 -0.000288244772786 0)
(-0.00136351615817 -0.000243425148474 0)
(-0.00146518225246 -0.000210742853649 0)
(-0.00142110642545 -0.000164266742712 0)
(-0.00137526521582 -0.000116837075031 0)
(-0.00140349191823 -8.44537517687e-05 0)
(-0.00155582914256 -7.34332326127e-05 0)
(-0.00148140764033 -5.8547689382e-05 0)
(-0.00147386200033 -0.000114368650048 0)
(-0.00167705240007 -0.000192751367142 0)
(-0.00170055221239 -0.0002153059684 0)
(-0.0017226812645 -0.000193536470737 0)
(-0.00173769798688 -0.000169455774976 0)
(-0.00174977724949 -0.000145638818496 0)
(-0.001762563081 -0.000118252074935 0)
(-0.00177405534598 -8.58051998459e-05 0)
(-0.00178248904633 -4.93021243246e-05 0)
(-0.00178818644494 -1.18239333885e-05 0)
(-0.00179015956915 2.36392098247e-05 0)
(-0.0017867068659 5.62846990501e-05 0)
(-0.00177744498987 8.72249628598e-05 1.99538798135e-28)
(-0.00176290330377 0.000118088509176 -1.98903902068e-28)
(-0.00174337497032 0.000150348878979 0)
(-0.00171855112759 0.00018523590511 0)
(-0.00168818998689 0.000223797664931 0)
(-0.00165266642145 0.000267082670602 0)
(-0.00161236642149 0.000316291221257 0)
(-0.00156723484456 0.000372913403042 0)
(-0.00151681623529 0.000439110425494 0)
(-0.00145958464039 0.000518895835505 0)
(-0.00139205880302 0.000619579579146 0)
(-0.00130889830816 0.000749932434272 0)
(-0.00120439406679 0.000912646163225 0)
(-0.00107455148776 0.00109909696208 0)
(-0.000917601662385 0.00128927452062 0)
(-0.000737818649966 0.00143947193835 0)
(-0.000560487667092 0.00149653495149 0)
(-0.000412993697498 0.00150253316444 0)
(-0.000276281560628 0.00150428920285 0)
(-0.000145461920397 0.00149137259182 0)
(8.74073370822e-05 0.00143365090372 0)
(0.000364353733359 0.000936227082923 0)
(0.000613465099091 0.000806299851324 0)
(0.000838969341627 0.000686607476174 0)
(0.000991052385197 0.000521726463304 0)
(0.00107468725403 0.000292501280633 0)
(0.0010410478835 1.6945066996e-06 0)
(0.000960393656886 -0.000241055664992 0)
(0.000895530759823 -0.00042529704107 0)
(0.000792508999806 -0.000577421993934 0)
(0.000685261368622 -0.000702841298554 0)
(0.000556450226238 -0.000758939482723 0)
(0.000447747661098 -0.000811760617457 0)
(0.000292518555965 -0.000829606411516 0)
(0.000170274798649 -0.000946762315873 0)
(5.92847137851e-05 -0.00103323098459 0)
(-3.9142350529e-05 -0.000534165716042 0)
(-0.000156655219046 -0.000757964457078 0)
(-0.000201810562975 -0.00073991831303 0)
(-0.000128375063056 -0.000429678299762 0)
(-0.000213641036643 -0.000500843920073 0)
(-0.000402927290699 -0.000765787070487 0)
(-0.000420671776129 -0.000751693890209 0)
(-0.000509782747884 -0.000722391804661 0)
(-0.000453901602686 -0.000552634778567 0)
(-0.000619298114726 -0.000573661409303 0)
(-0.000445700882094 -0.000285159473735 0)
(-0.000545878584047 -0.000247572448225 0)
(-0.000593128459135 -0.000247430883095 0)
(-0.000706463139284 -0.000339792086432 0)
(-0.000888945115161 -0.000485085547694 0)
(-0.000974245248814 -0.000475548391576 0)
(-0.000905472566938 -0.000373282952402 0)
(-0.000999327981854 -0.000416328883503 0)
(-0.00110465495535 -0.000491268808239 0)
(-0.00116303323942 -0.000508250059364 0)
(-0.00121429578886 -0.000491213212681 0)
(-0.00124066543024 -0.00045934768985 0)
(-0.00128889512589 -0.000430896924418 0)
(-0.00129799594076 -0.000382540052911 0)
(-0.0012902812792 -0.000293813959447 0)
(-0.001405710777 -0.000263973987512 0)
(-0.00127458708202 -0.000221038187517 0)
(-0.00150226502969 -0.000183099116017 0)
(-0.00134807918986 -0.000136811458288 0)
(-0.0015548903682 -0.000136726736726 0)
(-0.00139424734865 -9.84749533836e-05 0)
(-0.00159081732325 -0.000105285621009 0)
(-0.00163473303243 -0.000185460493101 2.0154340168e-28)
(-0.00168827016251 -0.000253150913767 -2.13958785733e-28)
(-0.00170722585165 -0.000244192094946 0)
(-0.00172601647237 -0.000215117620771 0)
(-0.00174384153958 -0.000186039753211 0)
(-0.00175767004217 -0.000158739481289 0)
(-0.00177094017581 -0.000129545760061 0)
(-0.00178325709829 -9.55367931158e-05 0)
(-0.0017928396472 -5.69903806106e-05 0)
(-0.00179894001366 -1.64511430646e-05 0)
(-0.00180083057512 2.36137547292e-05 0)
(-0.00179750504108 6.21118277638e-05 0)
(-0.00178855592038 9.92665333261e-05 0)
(-0.00177390178452 0.000136078341487 0)
(-0.00175346477762 0.000173941023397 0)
(-0.00172701688416 0.000214197456058 0)
(-0.0016946423027 0.000257768582169 0)
(-0.00165716565322 0.000305454469384 0)
(-0.00161569791716 0.000358535299093 0)
(-0.00157106639818 0.000419113371406 0)
(-0.00152348554443 0.000490690993859 0)
(-0.00147150357004 0.000579059504371 0)
(-0.00141134598122 0.000692458574881 0)
(-0.0013378225701 0.000838822362206 0)
(-0.00124538600389 0.00102062916626 0)
(-0.00112853610982 0.00123161310894 0)
(-0.000983126389939 0.00145286449231 0)
(-0.000811936641144 0.00162099381364 0)
(-0.000649127518179 0.00165322702123 0)
(-0.00051983627919 0.0016281058613 0)
(-0.000390948988823 0.00163535289437 0)
(-0.000233202780257 0.00165740272528 0)
(-4.40305552959e-05 0.00162464844832 0)
(0.000299543883953 0.00135651657576 0)
(0.000629802659564 0.000989423446773 0)
(0.000953998335366 0.0009074062914 0)