/*--------------------------------*- C++ -*----------------------------------*\
| =========                 |                                                 |
| \\      /  F ield         | OpenFOAM: The Open Source CFD Toolbox           |
|  \\    /   O peration     | Version:  v1806                                 |
|   \\  /    A nd           | Web:      www.OpenFOAM.com                      |
|    \\/     M anipulation  |                                                 |
\*---------------------------------------------------------------------------*/
FoamFile
{
    version     2.0;
    format      ascii;
    class       volVectorField;
    location    "29";
    object      U;
}
// * * * * * * * * * * * * * * * * * * * * * * * * * * * * * * * * * * * * * //

dimensions      [0 1 -1 0 0 0 0];


internalField   nonuniform List<vector> 
6400
(
(-0.000102598932442 -0.000144348181069 0)
(-0.000300595233102 -0.000131723033232 0)
(-0.000448592520926 -0.000127959055821 0)
(-0.000674282815337 -0.000137469433214 0)
(-0.000836213866636 -7.62100159032e-05 0)
(-0.00093174471546 1.19849814786e-05 0)
(-0.000838595205573 4.1109200997e-05 0)
(-0.000748994364078 -9.21674761328e-07 0)
(-0.000873881212856 -4.72933000496e-05 0)
(-0.00113610533989 -4.69928846072e-05 0)
(-0.00100145540487 -4.45683273742e-05 0)
(-0.00130862952351 -0.000109858871087 0)
(-0.00157966617739 -0.000133236785833 0)
(-0.00188352000841 -7.85387515648e-05 0)
(-0.00187241593434 -2.89571535051e-05 0)
(-0.00192553789207 -9.08990006363e-05 0)
(-0.00225359246722 -0.000159713625364 0)
(-0.00250798144909 -0.000129467279555 0)
(-0.00252372315347 -3.19279399862e-06 0)
(-0.0024031872546 0.000126282709996 0)
(-0.00224495100335 0.00012615134458 0)
(-0.00211256818416 9.38351920818e-05 0)
(-0.00203740539465 6.94761837942e-05 0)
(-0.00194802773247 -9.64031847438e-06 0)
(-0.0020228217266 -3.41442298878e-05 0)
(-0.00200423056465 2.13496358975e-05 0)
(-0.00205157207555 -3.39498617581e-05 0)
(-0.00231377583938 -8.55090348381e-05 0)
(-0.00249835958018 -7.16577910072e-05 0)
(-0.0026270724482 -2.63487880426e-05 0)
(-0.00229804940372 -5.46979868604e-05 0)
(-0.00246177361195 -0.000166289946903 0)
(-0.0025394648052 -5.45062431502e-05 0)
(-0.00218643479072 4.5365400146e-05 0)
(-0.0019323383821 2.29814976183e-05 0)
(-0.00187703849214 9.45719555273e-06 0)
(-0.00167801278822 -4.65746085841e-05 0)
(-0.00120962057905 -6.44029807537e-05 0)
(-0.00114814459928 -6.27286193433e-05 0)
(-0.00118440365992 -6.31841813695e-05 0)
(-0.00127054485488 -8.45521746562e-05 0)
(-0.001409332724 -0.000105400492914 0)
(-0.00142913611075 -0.000103763024094 0)
(-0.00135957387347 -8.88767019622e-05 0)
(-0.00124863341032 -6.43046859135e-05 0)
(-0.00119356720895 -3.40402616076e-05 0)
(-0.00112810629618 -1.25449523567e-05 0)
(-0.00105709183989 -4.43055374232e-06 0)
(-0.00101205115191 2.15862071964e-06 0)
(-0.00102324893871 2.51435480902e-05 0)
(-0.00107482110965 8.41059671207e-05 0)
(-0.0016652083409 0.000206010893361 0)
(-0.00208917775457 0.000198171345943 0)
(-0.00218848787178 0.000284662034617 0)
(-0.00161198860316 0.00025906079942 0)
(-0.000990154306726 2.08928609354e-05 0)
(-0.000629773392244 -0.000124632962466 0)
(-0.00012181371768 -0.000276135927865 0)
(0.000503915387562 -0.000309979461141 0)
(0.00112687467492 -7.87270809961e-05 0)
(0.00229954106794 0.000496042210926 0)
(0.00350060832914 0.000881717132077 0)
(0.00480245158244 0.000438137428668 0)
(0.00485254134724 0.000271597018872 0)
(0.00497382290767 0.000185106142176 0)
(0.00517623462307 0.000143101213515 0)
(0.00536602479486 7.48387824956e-05 0)
(0.00554991253171 3.54651918753e-05 0)
(0.00569797176534 6.24213132052e-06 0)
(0.00569107298518 -3.66293518888e-05 0)
(0.00559689562899 -8.42646218897e-05 0)
(0.0053203864886 -0.000139392320844 0)
(0.00489055964879 -0.000218036241909 0)
(0.00458368783495 -0.000333959529489 0)
(0.00366277626676 -0.000324406275984 0)
(0.00332995310834 -0.000321385065925 0)
(0.00228900614632 -0.000212624090612 0)
(0.00239703103616 -0.000321165817693 0)
(0.00106404998973 -0.000255260470356 0)
(0.000796325414199 -0.000470064333353 0)
(-3.2535614333e-05 -0.000182868920319 0)
(-0.000142384211476 -0.000224303275651 0)
(-0.000252886761803 -0.000229636827824 0)
(-0.000312142559483 -0.00017961017304 0)
(-0.000496119813644 -0.000177682923022 0)
(-0.000778394737695 -0.000124645951675 0)
(-0.0010395115249 -2.66622118836e-05 0)
(-0.00117621457446 -8.48418571438e-05 0)
(-0.00129547725502 -0.000201537273906 0)
(-0.00146038490599 -0.000203015056574 0)
(-0.0016130372607 -0.000234979660582 0)
(-0.00176454994553 -0.000340835915512 0)
(-0.00186662280692 -0.000335431679325 0)
(-0.00194603636715 -0.000238909713234 0)
(-0.00213516499953 -0.00018462634743 0)
(-0.0022703296692 -0.000292211067898 0)
(-0.00229362900026 -0.000297222258687 0)
(-0.00213364852239 4.72358603416e-05 0)
(-0.00153552162056 0.00019069035771 0)
(-0.00159979075815 0.000260807956171 0)
(-0.00156539603251 0.000226586260099 0)
(-0.00159963267539 6.42539375617e-05 0)
(-0.00186373279392 -4.51555732529e-05 0)
(-0.00233985101439 -2.21464258207e-05 0)
(-0.00173310256497 -5.0795046496e-05 0)
(-0.00226167827778 -0.000198225042489 0)
(-0.00295797457398 -0.000346905708972 0)
(-0.00295811767272 -0.000258259115637 0)
(-0.00278866413497 -0.000116322211336 0)
(-0.00244215619723 9.86118638678e-06 0)
(-0.00238157007979 6.76677775996e-07 0)
(-0.00165972177741 -9.27221736912e-05 0)
(-0.00167111652842 -7.64016809179e-05 0)
(-0.00165177708825 -4.74360582429e-05 0)
(-0.00148466819771 -6.90313188033e-05 0)
(-0.00183867288153 -0.000174041528172 0)
(-0.00249737033544 -0.000521319313265 0)
(-0.00244875662477 -0.00049901821077 0)
(-0.00206068217083 -0.00029771475095 0)
(-0.00180309565081 -0.000136018511582 0)
(-0.00311723209052 -0.0001158077108 0)
(-0.00737234163114 -0.000269337840258 0)
(-0.00729507362255 -0.00029801498708 0)
(-0.00651190839561 -0.000300093150825 0)
(-0.00571057447659 -0.000280631859004 0)
(-0.00519849786028 -0.000250941264811 0)
(-0.00497841702137 -0.000209516278485 0)
(-0.00503991769872 -0.000163893620517 0)
(-0.00503575654048 -0.000126304811807 0)
(-0.00526582260761 -6.02005745592e-06 0)
(-0.00620738821428 0.000431775959662 0)
(-0.00828418997917 0.00135386062482 0)
(-0.0105343211944 0.00197140578384 0)
(-0.00453161967854 0.00151859925837 0)
(-0.00213131192006 0.00157028645084 0)
(-0.00227188239075 0.00188908087529 0)
(-0.000225746591395 0.00213163057519 0)
(0.00370760633896 0.000824986531906 0)
(0.00595749911861 -0.00101541432561 0)
(0.00753919319446 -0.00218691430318 0)
(0.00792195343032 -0.00131736425827 0)
(0.00433323094417 1.36752886237e-05 0)
(0.00554221601604 0.000650236967578 0)
(0.00495419642557 0.000763635505139 0)
(0.00498941833032 0.000518312886027 0)
(0.00497307590001 0.000273759499651 0)
(0.00504533129246 0.000219762222784 0)
(0.00543454601491 0.000204069765704 0)
(0.00561825169027 8.98304629353e-05 0)
(0.00570674248364 -8.98501274313e-05 0)
(0.00556046688281 -0.000301905948657 0)
(0.00524289098547 -0.000507845082596 0)
(0.00470775477754 -0.000619901845975 0)
(0.00450727524713 -0.000777411302458 0)
(0.00407022145875 -0.000864512691518 0)
(0.00360543933037 -0.000900485167047 0)
(0.00304659130695 -0.000844094966787 0)
(0.00248285494084 -0.000975933389667 0)
(0.00156252271062 -0.00112094398302 0)
(0.000722546481662 -0.00184038939207 0)
(-5.23761372699e-05 -0.000309190321532 0)
(-0.000136912966142 -0.000370560820052 0)
(-0.000219625983504 -0.00038381689547 -1.34113566645e-28)
(-0.000474027617053 -0.000453376129939 1.47638266828e-28)
(-0.000803406965163 -0.000546669321483 1.70481738093e-28)
(-0.000907126774275 -0.000432647138104 -1.61837985902e-28)
(-0.00092754102502 -0.000197044756729 1.65338081187e-28)
(-0.00106633244867 -0.000264845125884 -1.95167614461e-28)
(-0.00122786002951 -0.000367552707448 0)
(-0.00142142449001 -0.000399544559436 0)
(-0.00162509256847 -0.000413437919042 0)
(-0.00174108833564 -0.000432990145245 0)
(-0.00182675033168 -0.000410005187803 0)
(-0.00186609636024 -0.000360221345125 0)
(-0.00186185468294 -0.000237337795537 0)
(-0.00177895903413 -2.12468614698e-06 0)
(-0.000891497724524 0.000116687911192 0)
(-0.000839062248185 0.000192718800592 0)
(-0.000845186473788 0.000215810444102 0)
(-0.000894360485291 0.000133456933791 0)
(-0.00122564001231 4.73871187704e-05 0)
(-0.00187442925116 -0.000104230861934 0)
(-0.00147933879773 -0.000154460325884 0)
(-0.00179188563219 -0.000208390839226 0)
(-0.00257269857992 -0.000440023221291 0)
(-0.00305740177082 -0.000694284720591 0)
(-0.00267139435864 -0.000443742173223 0)
(-0.00254555471827 -0.000235738794466 0)
(-0.00234196779031 -5.95556148182e-05 0)
(-0.0019408791315 -6.66710974427e-07 -7.46516643747e-28)
(-0.00213095386667 1.62108664946e-06 8.27752130204e-28)
(-0.00179307415196 -8.46773376448e-05 0)
(-0.00162460173233 -0.000166599461298 0)
(-0.0021392780528 -0.000254168251759 0)
(-0.00281129643496 -0.000680439001456 0)
(-0.00227891186116 -0.000515422961573 0)
(-0.00206280789195 -0.000349211055925 0)
(-0.00658256611708 -0.00112928220525 0)
(-0.00447216399993 -7.32479547468e-05 0)
(-0.0023094347945 0.000624892387705 0)
(-0.000422882552974 0.001081414827 0)
(0.00100450388993 0.00123114097618 0)
(0.00242557764518 0.00116457884966 0)
(0.00380258310269 0.000989885979856 0)
(0.00503118435483 0.000759693467571 0)
(0.00605721336982 0.000485390562931 0)
(0.00686945626037 0.00020086477275 0)
(0.00743954215074 -6.48696121135e-05 0)
(0.00759096639235 -0.00029922183739 0)
(0.00753256309277 -0.000481672482347 0)
(0.00712861282438 -0.000547223382731 0)
(0.00626594599762 -0.000422386868883 0)
(0.00509073465977 -7.61479431367e-05 0)
(0.00468548018887 0.00044000941339 0)
(0.00436553733563 0.00142383964864 0)
(0.00477976482545 0.00390777213417 0)
(0.00652739109562 0.00610008225419 0)
(0.00835465783528 0.00522616416551 0)
(0.00807573552672 0.00103513607427 0)
(0.00655550794918 -0.00350330204563 0)
(0.00603995797587 -0.0050399025255 0)
(0.00589074047895 -0.00362118743621 0)
(0.00558642982407 -0.000489822017908 0)
(0.00445627740098 0.000717185378318 0)
(0.0043332289282 0.000647189858501 0)
(0.00475668961032 0.000507378934854 0)
(0.0051471992924 0.000460935379794 0)
(0.00533152245158 0.000369596359482 0)
(0.00544495220658 0.000137188825507 0)
(0.00544328527411 -0.00018193351983 0)
(0.00528038741385 -0.00049327259244 0)
(0.00506838147789 -0.000722240938262 0)
(0.00498369532221 -0.000881132688165 0)
(0.00477832704752 -0.00113289240209 0)
(0.00428172848623 -0.00139282580354 0)
(0.00367135823604 -0.00148534064316 0)
(0.00302511644895 -0.00148595975897 0)
(0.00240300561779 -0.00181285900736 0)
(0.00168186554115 -0.00256342167696 0)
(0.000449868669416 -0.0026607715009 0)
(-5.50007916401e-05 -0.000493621931362 0)
(-4.13034667256e-05 -0.0002881025203 0)
(-0.00020042303406 -0.000635145860949 0)
(-0.000547522153281 -0.000786647648216 0)
(-0.00061661436662 -0.000586742067009 0)
(-0.000216587313751 -0.000141303605912 0)
(-0.000242906630746 -0.000142235474877 0)
(-0.00053959747739 -0.000404262772712 0)
(-0.00108836243684 -0.0006793949756 0)
(-0.0013029951108 -0.000642553275084 0)
(-0.00158966481531 -0.000633141577267 0)
(-0.00169072865172 -0.000559254594879 0)
(-0.00167714563622 -0.000404132405283 0)
(-0.0014763897735 -0.000130416075702 0)
(-0.000930497356703 8.43661806398e-05 0)
(-0.000803320039811 0.000189726098184 0)
(-0.000780608144567 0.00024308254536 0)
(-0.000824429300853 0.000198665047061 0)
(-0.00100007299346 0.000102178481964 0)
(-0.00162023176568 -0.000106923710187 0)
(-0.00172652637668 -0.000255512447295 0)
(-0.00180373975622 -0.000290368590298 0)
(-0.00228878671871 -0.000494703469958 0)
(-0.00291906299654 -0.000850082213777 0)
(-0.00289475438735 -0.000834830439129 0)
(-0.00264431293186 -0.000573951411394 0)
(-0.002139323725 -0.000341825101953 0)
(-0.00245086388163 -0.000263390387995 0)
(-0.0018222660003 -0.000154183795034 0)
(-0.00237374497919 -0.000170671339731 0)
(-0.00182729510531 -0.000208171045624 0)
(-0.0021442949037 -0.000239801875234 0)
(-0.00309614850022 -0.000880077099412 0)
(-0.00254763323188 -0.000686227676703 0)
(-0.00241942006477 -0.000354360854687 0)
(-0.0068855181891 -0.00141726584602 0)
(-0.00413176594462 -0.000158010220079 0)
(-0.00154633976386 0.00110682197053 0)
(0.00112613649802 0.00208374078368 0)
(0.00352960008085 0.00267897945994 0)
(0.00567000908053 0.00294746298194 0)
(0.00756334994468 0.00295227399192 0)
(0.00924948842899 0.00274900334003 0)
(0.0107496747953 0.00240686348746 0)
(0.0120631314217 0.00198115974162 0)
(0.0131856215859 0.0015048792782 1.67420948052e-27)
(0.0141173276852 0.00100678533458 -1.64892063681e-27)
(0.0148616897582 0.000515575925273 0)
(0.0153983639854 5.56196915775e-05 0)
(0.0156363920501 -0.000376265551539 0)
(0.0156532075954 -0.000784877734021 0)
(0.0153789283347 -0.00114209117822 0)
(0.0147894288054 -0.00135877004525 0)
(0.0139020176136 -0.00129054960616 0)
(0.0123832982741 -0.000666501354372 0)
(0.010670881706 0.00148229059584 0)
(0.00872282743623 0.00306039525585 0)
(0.0070012576222 0.000186349281958 1.26272798661e-27)
(0.00451852354034 -0.00353916991195 -1.03681152541e-27)
(0.00306978016957 -0.0052262643361 0)
(0.002784620567 -0.00541988939364 0)
(0.00294091435659 -0.00395691824781 0)
(0.00338259968765 -0.00128285264505 0)
(0.00366108859033 0.000812831002896 0)
(0.00437813791296 0.00102362019006 0)
(0.00464101571484 0.000845759804367 0)
(0.00490243675833 0.000689729847872 0)
(0.00515976057803 0.000505803181997 0)
(0.00533144122883 0.000195209236282 0)
(0.005483563286 -0.000217138436986 0)
(0.00550331885832 -0.000585243213476 0)
(0.00543467301448 -0.000852518693662 0)
(0.00516628177991 -0.00119108091307 0)
(0.00447666730117 -0.00158713953711 0)
(0.003899908599 -0.00193288403563 0)
(0.0033239110474 -0.00219688319706 0)
(0.00259005903591 -0.0022901039436 0)
(0.00159925738693 -0.00216383629211 0)
(0.00118241731346 -0.00300149439081 0)
(0.000397706271486 -0.00357545363344 0)
(4.87868922377e-06 -0.000444534802341 0)
(-6.66597292093e-06 -0.00034745593782 0)
(-0.000243184866995 -0.00101907698249 0)
(-0.000438188873648 -0.000859119231022 0)
(-0.000283468186821 -0.000373024364056 0)
(-0.000189994582942 -0.00017539436949 0)
(-0.000318622217237 -0.000350407550307 0)
(-0.000856119547137 -0.000942799620614 0)
(-0.00117146894684 -0.00103287271474 0)
(-0.00131076612176 -0.000893329148442 0)
(-0.00142505360235 -0.000775651187919 0)
(-0.0013430591773 -0.000492071421206 0)
(-0.000978470488516 -9.23081141835e-05 0)
(-0.000758218637805 9.38693950184e-05 0)
(-0.000794914736071 0.000190929221396 0)
(-0.000861823624302 0.000218953987148 0)
(-0.000988797865905 0.000169153354111 0)
(-0.0012523609353 -1.19317315871e-05 0)
(-0.00189104835606 -0.000306507214198 0)
(-0.00156595899707 -0.000261478084528 0)
(-0.00166129718442 -0.000374211901978 0)
(-0.0022505271056 -0.000760396820063 0)
(-0.00270801064868 -0.00106708223729 0)
(-0.00270513529419 -0.000928188534353 0)
(-0.00243760011778 -0.00064834505903 0)
(-0.00207974656667 -0.000488485480331 0)
(-0.0023880499988 -0.00043891715744 0)
(-0.00165886456606 -0.000286905331073 0)
(-0.00228533548886 -0.000371241652818 0)
(-0.00172517935185 -0.000343095523131 0)
(-0.00230819057434 -0.000401444252046 -7.12675459235e-28)
(-0.00302067102745 -0.00116338020354 3.67287782589e-28)
(-0.00250464094405 -0.000572933953614 0)
(-0.00369468758857 -0.00068178614045 0)
(-0.00550874105381 -0.000945662154319 0)
(-0.00259107318085 0.00113967388223 0)
(0.000451047899432 0.0027466878258 0)
(0.00328687039324 0.00385561422828 0)
(0.00589526836701 0.00457010204769 0)
(0.00826254327844 0.004918835788 0)
(0.0104064014126 0.00496310673626 0)
(0.0123390549069 0.00476024526386 0)
(0.0140704361419 0.00436453016512 0)
(0.015606434266 0.00383048771261 0)
(0.0169483633561 0.00320591222008 0)
(0.0180975606151 0.00252825913496 0)
(0.0190581781758 0.00182766255528 0)
(0.0198368180392 0.00112745147113 0)
(0.0204392287936 0.000447052233979 0)
(0.0208202829763 -0.000213290451837 0)
(0.021004079545 -0.000876204948716 0)
(0.0209524258092 -0.0015682802156 0)
(0.0205523202128 -0.00226224568226 0)
(0.0196196691478 -0.00288656351694 0)
(0.0175638821582 -0.00332877365492 0)
(0.015639592001 -0.00392154113412 0)
(0.011535537526 -0.00472739205002 0)
(0.00836719801817 -0.00582778080517 0)
(0.00520365114853 -0.00604588872468 0)
(0.00262757816311 -0.0056560093264 0)
(0.00125273160921 -0.00490026219566 0)
(0.000449169649135 -0.00330387656849 0)
(0.000287191251346 -0.000424622526051 0)
(0.00248043684968 0.0021722392677 0)
(0.00419406596914 0.00187895619291 0)
(0.00477069478508 0.00116603778002 0)
(0.00499778703726 0.000880512874903 0)
(0.00515804226088 0.000665613316727 0)
(0.00530883223346 0.000330026609123 0)
(0.00550947399213 -0.000109454165038 0)
(0.0056970854244 -0.000577590758611 0)
(0.00554663599661 -0.00113057924596 0)
(0.00482729583552 -0.00169920289876 0)
(0.00426394136998 -0.00219249687114 0)
(0.00371353429184 -0.00262395804037 0)
(0.00307219845434 -0.00298294331888 0)
(0.00225076783774 -0.00293349652973 0)
(0.00152415250074 -0.00288555514097 0)
(0.00102550267895 -0.00386599494314 0)
(0.000278516485405 -0.00415597160168 0)
(3.92026078543e-06 -0.000401179425886 0)
(-2.75954644167e-05 -0.000433979344527 0)
(-0.000258780587736 -0.00115586111323 0)
(-0.000275269295454 -0.000678340749555 0)
(-0.000157931746719 -0.000248134500236 0)
(-0.000190996444364 -0.000242929560836 0)
(-0.000558895422893 -0.00075191970888 0)
(-0.00110817326643 -0.00132842001192 0)
(-0.0011378475099 -0.0011516953121 0)
(-0.00116980014853 -0.000945734886455 0)
(-0.00104512695732 -0.000596962203488 0)
(-0.000645977529826 -0.00018043128188 0)
(-0.000571904844035 1.32726188118e-05 0)
(-0.000649089766712 8.98369950348e-05 0)
(-0.000729170651621 0.000106881833687 0)
(-0.00090439450517 4.9350563115e-05 0)
(-0.00122569275242 -0.000146780280307 0)
(-0.00185063383235 -0.000423080898074 0)
(-0.0013168170733 -0.000209313021087 0)
(-0.00144581481841 -0.000324136015113 0)
(-0.002076771525 -0.000843118831057 0)
(-0.00246215621264 -0.0011996780564 0)
(-0.00253695836848 -0.00115970565472 0)
(-0.00216629693069 -0.000815437143549 0)
(-0.00242453129544 -0.000724718430083 0)
(-0.00212745404142 -0.000515758298772 0)
(-0.00146289631734 -0.000315177449316 0)
(-0.00209157164624 -0.000455651335397 0)
(-0.00157349469795 -0.000459610100375 0)
(-0.00214640059222 -0.0005405622548 0)
(-0.00297640413123 -0.00139327912874 0)
(-0.00261560662614 -0.000754376249157 0)
(-0.00816018012355 -0.00333899595698 0)
(-0.00511317808316 -0.000479941164259 0)
(-0.00180086440115 0.00221191441163 0)
(0.00141345590011 0.00425168672944 0)
(0.00437062431461 0.00567156923529 0)
(0.00712163150262 0.00658053550171 0)
(0.00968709589011 0.00707783667408 0)
(0.0120647363124 0.00722075460941 0)
(0.0142496132235 0.00706331232055 0)
(0.0162354109345 0.00665887730227 0)
(0.0180170617993 0.00606077220751 0)
(0.0195916096366 0.00532143657218 0)
(0.0209587275676 0.00448904776366 0)
(0.0221222178546 0.00360495742321 0)
(0.0230909708491 0.00270307099922 0)
(0.0238782415494 0.00180845547759 0)
(0.0245010539233 0.000935956639381 0)
(0.0249639478521 8.58677955566e-05 0)
(0.0252377984952 -0.000778130121826 0)
(0.0253495468753 -0.00173382923862 0)
(0.0251880052061 -0.00288075111269 0)
(0.0245363209835 -0.00436009386396 0)
(0.0232420538848 -0.00648711741611 0)
(0.0215795298892 -0.00948952532052 0)
(0.0177518039183 -0.0108112472036 0)
(0.0138285469617 -0.010128114669 0)
(0.00878500409973 -0.00811421536418 0)
(0.00347083847324 -0.00572322625885 0)
(-0.00131751852992 -0.00318164135253 0)
(-0.0047493190852 0.00136122981414 0)
(-0.00151185906976 0.00222647137265 0)
(0.00185003870791 0.00893252736585 0)
(0.0033812633136 0.00301082979507 0)
(0.00450695086909 0.00159158287672 0)
(0.0048861884622 0.0010880078222 0)
(0.00516791488754 0.000838917707353 0)
(0.00538802273476 0.000524826131229 0)
(0.00577777400353 5.46098686494e-05 0)
(0.00596191951501 -0.000706220536952 0)
(0.00534183950898 -0.00156908764712 0)
(0.00469058640323 -0.00224282238524 0)
(0.00423697828264 -0.00281148600641 0)
(0.00360373607025 -0.00331853862618 0)
(0.00299110409049 -0.00373133507668 0)
(0.00215158150112 -0.00349856544588 0)
(0.00150931883896 -0.00351906719029 0)
(0.00100229322011 -0.00452693246698 0)
(0.000299412911925 -0.004711296926 0)
(-1.57918112013e-05 -0.000438985451523 0)
(-0.000113734965261 -0.000633044263944 0)
(-0.000401282695492 -0.00128605507653 0)
(-0.00035041454398 -0.000935093623777 0)
(-0.000157830856639 -0.000282233664516 0)
(-0.000333694371959 -0.000510338257597 0)
(-0.000924285209463 -0.00134418073623 0)
(-0.00108082022268 -0.00143906639351 0)
(-0.0010335051155 -0.00111887253311 0)
(-0.000795476103369 -0.0007121091212 0)
(-0.000883321649837 -0.000485014115033 7.08747394853e-28)
(-0.000497133642632 -7.4350320549e-05 -2.70749966636e-28)
(-0.000629514399516 -7.87721873867e-06 0)
(-0.00065890233932 1.53781904205e-05 0)
(-0.000779528375864 -3.84465519315e-05 0)
(-0.00108830008249 -0.000273286378759 0)
(-0.00170246854227 -0.000567489841738 0)
(-0.00112234811906 -0.000223634543061 0)
(-0.00120832307881 -0.00023931739973 0)
(-0.00177487085384 -0.000791630207984 0)
(-0.00226459558716 -0.0013568702428 0)
(-0.00250903438262 -0.00139873754332 0)
(-0.00231970956509 -0.00109005616896 0)
(-0.00213444058747 -0.00084845859777 0)
(-0.00169787632917 -0.000569812300818 0)
(-0.00138582435625 -0.000369044430714 0)
(-0.00163186075407 -0.000458586803783 0)
(-0.00144793890605 -0.00055796921614 0)
(-0.00180766659268 -0.000635084495442 0)
(-0.00302238201949 -0.00181386998103 0)
(-0.00257398873668 -0.00098996147961 0)
(-0.00816399863457 -0.00460004459878 4.88136352503e-27)
(-0.00519154033021 -0.000727846763646 -4.01035457361e-27)
(-0.00158874724432 0.00293016168362 0)
(0.00165069979502 0.00547746782101 0)
(0.00469768307545 0.00731018509293 0)
(0.00758320177109 0.0085571984888 0)
(0.0103297484116 0.00931149441689 0)
(0.0129355515349 0.00964414037739 0)
(0.0153824387797 0.00960926499467 0)
(0.0176474164402 0.00925866873139 0)
(0.0197091995316 0.00864679584097 0)
(0.0215520499583 0.00783048284423 0)
(0.0231673182856 0.00686657424447 0)
(0.0245538442125 0.00580869680831 0)
(0.0257184885195 0.00470491295841 0)
(0.0266768394087 0.00359579405748 0)
(0.0274530956094 0.00251173853046 0)
(0.0280787749124 0.00146942266917 0)
(0.0285885615548 0.000469214638282 0)
(0.0289827297031 -0.000526312347081 0)
(0.0293418835335 -0.00160866785714 0)
(0.0296920638176 -0.00294796243556 0)
(0.0300756619864 -0.00477728760602 0)
(0.0306860829385 -0.00749284013684 0)
(0.0320929582289 -0.0114009994343 0)
(0.0335238899372 -0.014620724542 0)
(0.0334817932637 -0.0150944314839 0)
(0.0307909305794 -0.013102530115 0)
(0.0259785145513 -0.00977871421884 0)
(0.0202669217581 -0.00584697166978 0)
(0.0150812172933 -0.000975762067476 0)
(0.00960077704192 0.00586304280124 0)
(0.00549742857635 0.0155534341094 0)
(0.00295231109653 0.00325290187072 0)
(0.00427408068262 0.00193671623193 0)
(0.00492433226147 0.00153033922229 0)
(0.00544772980839 0.00125773123481 0)
(0.00587313957224 0.000865384272459 0)
(0.00622763325328 0.000121603475689 0)
(0.00603049652324 -0.0010413776401 0)
(0.00529339897993 -0.00205605227096 0)
(0.00484441051878 -0.00281940829308 0)
(0.00427980599875 -0.00345037786836 0)
(0.00364853029311 -0.00402925812289 0)
(0.00295674626204 -0.00425747170972 0)
(0.00229697139515 -0.00423019664426 0)
(0.00150543454826 -0.00416544706679 0)
(0.000984883758016 -0.00509109283946 0)
(0.000345239864629 -0.00540374461333 0)
(-2.77318739763e-05 -0.000521546736843 0)
(-0.000218445621827 -0.000910323390642 0)
(-0.000506126135715 -0.00124449862559 0)
(-0.000171167818842 -0.00041993708936 0)
(-0.000157834768875 -0.000353657011171 0)
(-0.000548565254885 -0.000984653046012 0)
(-0.000902932507289 -0.00148678152524 0)
(-0.00100796222213 -0.00148332194154 0)
(-0.000739448316971 -0.000884550038538 0)
(-0.000750830686969 -0.000666414321408 0)
(-0.000452845190455 -0.000243273333284 0)
(-0.000548984160736 -9.20278859605e-05 0)
(-0.000633035206082 -6.59837969508e-05 0)
(-0.000662254872021 -8.12301352948e-05 0)
(-0.00089136915635 -0.0002799649533 0)
(-0.00146797551334 -0.000647887579751 0)
(-0.00102108491422 -0.000347984192388 0)
(-0.00107132223229 -0.000240791828204 0)
(-0.00137310554042 -0.000591007824632 0)
(-0.00203575088567 -0.0013535825056 0)
(-0.00222589663668 -0.00161138481383 0)
(-0.00199416974919 -0.00126438694972 0)
(-0.00222991493574 -0.00115569946909 0)
(-0.00178266465222 -0.000767662656019 0)
(-0.00201598932785 -0.00068756707678 0)
(-0.00125864832097 -0.000442132021827 0)
(-0.00184335900943 -0.000752363735271 0)
(-0.00147587300483 -0.000736894078862 0)
(-0.00258555818573 -0.00200048666011 0)
(-0.00250065579244 -0.00144509136644 0)
(-0.00464548413291 -0.0029266580707 0)
(-0.00564424018763 -0.00191351879408 0)
(-0.00186549478204 0.00283169779161 0)
(0.00140197923167 0.00619171099815 0)
(0.004490179514 0.00860776228836 0)
(0.00747462049113 0.0103253618045 0)
(0.0103760717312 0.0114682146679 0)
(0.0131911479707 0.0121120795377 0)
(0.0158967763027 0.0123103848492 0)
(0.0184565203346 0.012109843495 0)
(0.0208303318804 0.0115619251926 0)
(0.0229833333777 0.0107262062544 0)
(0.0248909158578 0.00966765369338 0)
(0.026540343502 0.00845228884916 0)
(0.0279303751037 0.00714339441874 9.42669565919e-28)
(0.0290713508434 0.00579948230239 -9.45420300801e-28)
(0.0299865639432 0.00447216556324 0)
(0.030713107948 0.00320225715545 0)
(0.031300725034 0.00201492963981 0)
(0.0318103646195 0.000915707849984 0)
(0.0323065943138 -0.000116304321042 0)
(0.0328375635047 -0.00115529273392 0)
(0.0335484481204 -0.00233810107209 0)
(0.0345335629731 -0.0038533221482 0)
(0.03595353514 -0.00587456745262 0)
(0.0381065909889 -0.00843627814483 0)
(0.0407420401953 -0.0105930244614 0)
(0.042761406218 -0.0113290166957 0)
(0.0431645025289 -0.0107870268285 0)
(0.0418321740646 -0.00961322226645 0)
(0.0391729800637 -0.00823351339286 0)
(0.0357082631198 -0.00657130267557 0)
(0.0306102820187 -0.00449783883475 0)
(0.0247539934248 -0.00201979335668 0)
(0.00802888184542 0.00066947614005 0)
(0.00417604247962 0.00161580988147 0)
(0.00484008668877 0.00191310045 0)
(0.00563423477282 0.00184904444872 0)
(0.0062237768341 0.00122723903165 0)
(0.00650706633764 2.07769415385e-05 0)
(0.00614532144363 -0.00144636651826 0)
(0.00555687081201 -0.00257047779657 0)
(0.00507839908963 -0.00342514889122 0)
(0.00441246043493 -0.00412764800835 0)
(0.0037677348407 -0.004686549723 0)
(0.00304593290107 -0.00483750821302 0)
(0.00244170917137 -0.00499580998518 0)
(0.00157080044276 -0.00498998518223 0)
(0.00089923016337 -0.00564561941793 0)
(0.000314918841797 -0.00613848045128 0)
(-3.52566114666e-05 -0.000629593908358 0)
(-0.000321900585498 -0.00124530679147 0)
(-0.00043847237513 -0.00116755752014 0)
(-0.000187610186503 -0.00045547155023 0)
(-0.000284741729431 -0.000556002197109 0)
(-0.000780355694007 -0.00146332950598 0)
(-0.000778168870851 -0.00158895836 0)
(-0.000932211476489 -0.0014709642004 0)
(-0.000512260341537 -0.000670408979724 0)
(-0.000876541024638 -0.000764154726734 0)
(-0.000468100907136 -0.000231903193541 0)
(-0.000617787055944 -0.000166433595342 0)
(-0.000653248762084 -0.00013895681742 0)
(-0.000743633364295 -0.000237223506271 0)
(-0.00114360066455 -0.000648547795948 0)
(-0.00153032071116 -0.000764832512293 0)
(-0.000999744001178 -0.000304968292748 0)
(-0.00119435160687 -0.000437561296045 0)
(-0.00157505204742 -0.00103698642333 0)
(-0.00193661444026 -0.00161751381227 0)
(-0.00208167008648 -0.00165558390134 0)
(-0.00160278165384 -0.00112861692313 0)
(-0.00165714739928 -0.000988776518342 0)
(-0.00126861076866 -0.000661212462201 0)
(-0.00111872489873 -0.000483976351829 0)
(-0.00141940145286 -0.000675022979999 0)
(-0.00120732294772 -0.000794972424481 0)
(-0.00183872259031 -0.00115599391187 0)
(-0.0027033273131 -0.00224728159312 0)
(-0.00239297573459 -0.00134037140805 0)
(-0.0067736914718 -0.00449950002477 0)
(-0.00272248402271 0.0016713538932 0)
(0.000713289466947 0.00612325156567 2.15887502184e-27)
(0.00386773757517 0.00934452849356 -1.70323015417e-27)
(0.00692194046788 0.0116974872828 0)
(0.00993703104802 0.0133698085865 0)
(0.0129227777554 0.0144614942225 0)
(0.0158614703012 0.0150303516738 0)
(0.018712474112 0.0151127521279 0)
(0.0214191365306 0.0147466432549 0)
(0.0239221599823 0.0139853147997 0)
(0.0261725353523 0.0128982444601 0)
(0.0281378511209 0.011563527173 0)
(0.0298028197101 0.0100606618954 0)
(0.0311668481027 0.00846592129464 0)
(0.0322435883682 0.00685191707054 0)
(0.033064137819 0.00528637224601 0)
(0.0336797329807 0.00382629344797 0)
(0.0341605389055 0.00251097261331 0)
(0.0345915118007 0.00135699825923 0)
(0.0350689999065 0.000356664622042 0)
(0.0356847082963 -0.000533639103366 0)
(0.0365393490938 -0.00141792842143 0)
(0.0377767390539 -0.0024409891956 0)
(0.0394861389404 -0.00375715452863 0)
(0.0418286835461 -0.00543757359141 0)
(0.0448143419914 -0.00720100960695 0)
(0.0479221246688 -0.00865436652672 0)
(0.0503791550721 -0.00974942659372 0)
(0.0516851839803 -0.0106727744024 0)
(0.0516281777983 -0.0115674117603 0)
(0.0501382604879 -0.012415108362 0)
(0.046324643764 -0.0132591464564 0)
(0.0409133276192 -0.0148114584364 0)
(0.0310189007804 -0.0142919540344 0)
(0.0079708685058 -0.00122116161153 0)
(0.00446096760932 0.00247909068457 0)
(0.00572720823581 0.00287958330038 0)
(0.00683108550503 0.00174322517516 0)
(0.00702886991326 -0.000160668074771 0)
(0.0065662988585 -0.00188505806602 0)
(0.00603113694601 -0.00316598026401 0)
(0.00536907841844 -0.00412765235898 0)
(0.00459068936306 -0.00484654292614 0)
(0.00385541012318 -0.00530092835507 0)
(0.00315525260397 -0.00552740520712 0)
(0.00245784055702 -0.00575219710033 0)
(0.00161499945927 -0.00595585642079 0)
(0.000814463101643 -0.00633497528789 0)
(0.000243569033194 -0.00670920648982 0)
(-5.40355741594e-05 -0.000792572287425 0)
(-0.000441261006857 -0.0015978773483 0)
(-0.000386055840188 -0.0009791908198 0)
(-0.000197813879134 -0.000453062253645 0)
(-0.00051609043518 -0.000953143473598 0)
(-0.000589593942335 -0.00124716551719 0)
(-0.000679647115028 -0.00170534412229 0)
(-0.000705528349175 -0.00135828825222 0)