/*--------------------------------*- C++ -*----------------------------------*\
| =========                 |                                                 |
| \\      /  F ield         | OpenFOAM: The Open Source CFD Toolbox           |
|  \\    /   O peration     | Version:  v1806                                 |
|   \\  /    A nd           | Web:      www.OpenFOAM.com                      |
|    \\/     M anipulation  |                                                 |
\*---------------------------------------------------------------------------*/
FoamFile
{
    version     2.0;
    format      ascii;
    class       volScalarField;
    location    "784";
    object      alphak;
}
// * * * * * * * * * * * * * * * * * * * * * * * * * * * * * * * * * * * * * //

dimensions      [0 0 -1 0 0 0 0];


internalField   nonuniform List<scalar> 
6400
(
0.902352274989
1.46026851961
2.32738763136
2.93339901131
3.51107910075
4.08429303579
4.78853947017
5.57310501846
6.07997774896
6.8317241033
8.13157380186
9.08981544865
9.90858552206
10.8117637722
11.8985904902
13.0433476749
14.0935763968
15.0846071411
15.9252339694
16.4605159697
16.7970209052
17.2861202812
18.1228262948
19.2756674614
20.5239039505
21.665085434
22.6396711161
23.5534590422
24.5032332748
25.5043194768
26.5014644454
27.3125242911
27.8606817027
28.2581867619
28.5521989822
28.7532462943
29.1187858204
29.681696415
29.9533670413
30.0206192587
30.4358696399
31.3173111164
32.1895552887
32.700971357
32.8887791883
32.8477371403
32.6429005805
32.315269598
31.8778481915
31.3499259526
30.6558453442
29.5942165822
28.1571214682
26.4286409509
24.821345212
23.3516805534
21.4171098665
18.8029956909
16.0726292437
13.712865295
11.3283081916
8.8355429081
6.53857948758
6.20713108389
9.1412678104
13.6613988775
16.4331981596
15.9842309338
13.8800258359
12.2214296053
11.3672028147
11.6488776854
12.2988362209
12.2542351461
14.4475913319
13.9350965537
15.8982469675
9.79430154434
12.8543896451
4.80054755941
3.17135629052
2.56063870141
3.20446892242
4.48561486533
4.49009083581
4.49374612481
4.79154423122
5.31015353548
6.03302791168
6.94401781187
8.02883443196
9.11349436166
10.0842604288
11.0179128502
11.9750657539
13.0627827933
14.2089334799
15.3010197948
16.3896113512
16.7641415904
16.929402137
17.4017128914
18.2229053145
19.3667489385
20.7234170428
21.8149446159
22.7631731038
23.7106893466
24.6732827016
25.6459847261
26.6176555807
27.5063214291
28.0483187171
28.438427415
28.7603518962
28.8893751386
29.2946976704
29.8824059843
30.1174409644
30.0697110096
30.4596055048
31.7816066585
32.9008367347
33.3293165704
33.4649708084
33.3609703872
33.0776506857
32.6957838164
32.1251125234
31.4560520901
30.8180159058
30.1875275712
28.9126245396
26.651454763
25.1387481409
23.4873715259
21.0971373548
18.5444670686
16.0091214899
13.4887899106
11.1144348803
9.12738717718
6.92101779636
6.72517491624
9.42375129279
14.742468099
18.2564550029
16.8158917897
14.5381033792
12.5559895149
11.8798863076
12.3789467803
13.5993859179
13.0730491757
13.0054210058
12.5534099171
11.4232762646
9.63133817409
8.12768710235
4.20839947668
3.30734170892
2.93944719462
3.46662830913
3.81977647502
4.44726661368
4.94433530941
4.97578206844
5.20158534496
5.92908345163
6.91656280846
8.01254663835
9.11660983127
10.1306230026
11.0649699494
11.8777717431
12.8709255945
15.4098244382
17.4154456112
17.967278377
17.6138836484
16.7354364305
17.1070567232
18.3312665394
19.5226965369
20.6620095918
21.8096688028
22.8520094655
23.8015780881
24.7444564336
25.7110119241
26.6532185414
27.6210470002
28.1551836634
28.3447590834
28.9327617454
29.0807842992
29.223880013
29.9674104576
30.2559356947
30.2756096791
30.6802215299
31.5378627164
32.3833407125
32.8952265561
33.1080045587
33.1076053134
32.9362719729
32.6138332037
32.1434804546
31.545053285
30.8159385455
29.8433229617
28.5030558329
27.0203889958
25.4789790665
23.4125201327
21.0180621466
18.5254935244
16.0139295968
13.5572258212
11.2562166785
9.05255692285
7.51563702589
8.13658131869
11.8248754167
15.8021382305
17.7111215446
17.6564858288
15.9878837298
14.2913957336
13.6274253933
13.5797117451
12.9516234004
12.4098909588
12.4709573027
12.2169070629
11.308807026
9.72292716566
7.28859469938
7.49840829125
3.39697421115
5.58478573791
3.85568873133
4.02722284272
4.7599992839
11.9573028821
10.3862673268
5.70536575081
5.88671651142
6.90502009797
8.03196639735
9.15776309432
10.1467537182
11.0836566751
12.7558560223
14.8227533301
16.5472422091
17.1489282766
16.4630337939
16.0428503274
16.5646803591
17.339913662
18.3276689908
19.5108240651
20.7381743483
21.9134605806
22.9800356677
23.91219917
24.8687776939
25.7748895584
26.8207345631
27.6167563779
28.3870155255
28.5574286592
28.5592771404
29.1464978253
29.37860902
29.6357251791
30.0751592662
30.4779256613
30.9850697184
31.7067093861
32.4343342008
32.9418689721
33.1925657756
33.2276298416
33.0832552555
32.7808197598
32.3292843144
31.7343865019
30.9773304152
29.9943223555
28.7419777272
27.2750122515
25.5567096576
23.4629077084
21.0730036722
18.5749244158
16.0872573664
13.7059678814
11.547119406
9.82043735676
9.1190414948
9.73664082423
11.6944544943
16.2981215713
19.4539829939
19.4566866433
17.7019226186
15.289633911
13.6634627764
12.8865747086
13.1070359302
14.6108701914
14.6130057461
13.3470902151
13.2682868721
16.6161771613
12.9910223822
10.9862513336
5.8295814462
7.68332177602
4.71451517863
5.03609651177
6.77323607689
11.8567376466
8.47500926038
6.24646963544
6.41516671569
7.12094155585
8.16857313699
9.30532998063
10.7499208391
12.9509696963
14.0382766587
14.5793014844
14.8561143558
14.9948041433
15.366213202
16.0831155118
16.685939394
17.3972462518
18.4184661228
19.6044188495
20.8419371851
22.0420676061
23.0857891612
24.1207722312
24.970617468
26.0221777825
26.8611834069
28.1239321221
28.3296307169
28.2577781956
28.6279405515
28.7761440253
29.1843056524
29.7060764843
30.2238322129
30.7127411658
31.2534236647
31.902247974
32.5497502087
33.0421547104
33.3180602168
33.3850706159
33.2682432335
32.9887365464
32.5576335738
31.974112396
31.2163685209
30.2432774453
29.026140773
27.5542153557
25.7660821469
23.6169184717
21.2170396969
18.7463578689
16.3472606641
14.1574460816
12.3617781937
11.2420197253
11.0883172719
11.2246953618
12.3012534204
16.0712158229
19.6509321243
20.8260222029
19.5558595198
16.7264617433
14.1902078528
13.8492121387
16.1690266379
17.0818590042
16.0850739683
15.2138012876
17.9416231955
20.9972549129
16.2647703513
15.3738667016
10.1058515737
9.29344045436
5.87960018758
6.37263849355
12.1481183161
11.6517305289
7.05444327069
6.88133400098
7.06400671257
7.47676547157
8.39610958589
10.936501465
14.0424027817
14.5811888952
14.3969585133
13.7921883716
13.778610881
14.3930761953
15.4468102035
16.0407387802
16.5976880402
17.4672635838
18.5525391818
19.7617181432
20.9369344715
22.1430708594
23.3925736266
24.2194595782
25.39871947
26.0760741125
27.5363933966
27.9465637752
28.822951375
28.4249156129
28.167211568
28.5647944539
29.204797361
29.8420405943
30.4207376078
30.9600105135
31.5208435982
32.1321351402
32.7281601039
33.2036205494
33.4942365412
33.5877577933
33.497858295
33.2440243431
32.8382675565
32.2771109955
31.538476352
30.5874124401
29.3872086557
27.8949350736
26.0588977091
23.8928491924
21.5338199152
19.1659381562
16.9550447088
15.0764612365
13.7265070984
13.1417177382
13.3475946435
12.620398155
14.3385088607
18.197254574
21.1363732296
22.2092302918
21.1481609362
17.6955865461
15.4141818873
17.1794839423
19.3891995618
18.8739247235
17.9111484076
18.0252037645
22.6886374301
24.3107201121
19.2559363443
19.0602431794
12.2493286336
9.25400307844
7.14175530574
6.69470923136
12.1311133225
8.72755789274
7.36857740814
7.50841574517
7.67257560034
8.39596658851
8.96838921204
13.6615672416
14.4552165001
14.6022335145
13.5270258698
12.8970250583
13.4267818004
14.8031361462
15.3860586148
15.7743291976
16.6046545739
17.5701969744
18.658844092
19.8645434735
21.1915087063
22.4607383065
23.4148620958
24.8811935232
25.4927485957
27.0412124875
27.3281437399
28.4596019324
28.3797511205
28.2262863745
28.0434296277
28.5432220167
29.3003246876
30.0154707879
30.6397700841
31.2168202467
31.7976679778
32.3940250727
32.960891793
33.4235640183
33.7236982292
33.839203891
33.7761820877
33.5524481958
33.1799632718
32.6533154698
31.9482457421
31.0263883068
29.8398585709
28.3374330658
26.494022357
24.3710795634
22.1292090417
19.9558693142
18.0104413006
16.4368669322
15.4061525681
14.964731128
14.6386735754
14.6139566349
16.3102767621
21.0500235979
22.7707686856
22.7389792878
21.4733229873
19.0807098219
18.668469425
21.123190302
21.5003358908
20.6624541183
20.0962683075
22.1472478768
24.9773532228
26.4970571046
21.8712527826
20.7287176176
12.0205833108
9.02319243006
8.32215865305
12.3609538849
12.2935834636
7.93872864543
8.0571938585
8.2324975659
8.33071520899
8.93605163171
13.3734198097
14.3520993723
14.5456656061
14.2105725618
12.5083405946
12.5473671733
14.122099071
14.9054011815
15.0576202568
15.649915222
16.6306595932
17.7190693237
18.8421642713
20.0952895314
21.2806985364
22.7572295955
23.4833117844
24.8974129528
26.5129381446
27.1817279069
27.0726729644
28.0124805161
28.4125291158
27.8180856555
28.0536094233
28.693636051
29.4591399956
30.2041121229
30.8720657277
31.4874223747
32.091263803
32.6887213397
33.243563722
33.6996562361
34.0076184195
34.1430791798
34.1087018511
33.9211215701
33.5913465837
33.1114957798
32.4533543845
31.5720508557
30.4131153583
28.9336635158
27.1443304116
25.1462302143
23.1062805338
21.172617417
19.4354392036
18.0090786425
17.0742131332
16.6389823603
16.5338826054
16.8276604922
16.8593791572
21.7040323548
24.8810277317
24.4619233077
23.5933643028
22.4222731513
22.9866386313
24.150966381
23.3559634705
22.643342145
22.8858965883
25.3370538718
26.0983317739
26.7550447871
23.8695148873
21.7221748294
11.3749175631
9.04580911343
9.00726259102
13.3708059137
11.3983678966
8.64610610672
8.8064852875
9.11516220665
10.2050203429
9.08942836898
14.1422253993
14.9015216323
14.6067347889
13.1101609547
12.2308407347
12.6793331558
14.1762722662
14.65317252
14.953729644
15.6595482442
16.6235848365
17.7755409526
18.9888952696
20.6013087291
21.9697412865
22.7286885886
24.637459996
24.8309561776
26.6570787936
26.7626108498
27.9891400151
27.4788902161
27.4965520304
27.7569214749
28.2291089974
28.8970110327
29.6520697252
30.4104243494
31.1182143268
31.7760336553
32.4084228279
33.0174417651
33.5732945303
34.0303992148
34.3473833667
34.5034373584
34.5017821437
34.3579772695
34.0811954508
33.6611994632
33.0658599444
32.2452158471
31.1458479827
29.7452124075
28.0916451634
26.3077460911
24.5203754911
22.7643122898
21.0542463515
19.631458895
18.8438430862
18.7278545975
18.9331531799
19.0717094588
18.9182487216
19.735690684
25.4657199187
26.7122960699
26.2866377849
26.5062080069
27.1677968192
26.5060546816
25.2888655863
25.0102640138
26.0751398125
27.4232906262
27.400966453
26.8808958983
25.9076191125
24.5561519327
10.9452559392
9.56150219459
10.1570018197
13.4751934188
9.6488848191
9.6754502486
9.56152914297
9.84604853371
12.7441969102
11.5632276995
14.976847166
15.1999383545
14.718405174
12.536523593
12.2983345659
13.8389529464
14.3849472874
14.4305860555
14.9145615143
15.788869351
16.7390778425
17.8359828763
18.9100205024
20.7258825144
22.863694166
22.6800789882
24.5774112943
25.9967831919
26.8678694147
27.6911222233
27.4154468829
27.6552675712
27.2603938886
27.6897099654
28.3965437035
29.1227956573
29.873278951
30.6372702224
31.3785094473
32.0824008451
32.7525360665
33.3832075908
33.9496220308
34.4150942415
34.7455570056
34.9254852987
34.9620045628
34.8709094961
34.6587549352
34.3133502614
33.8012946779
33.0724264214
32.0830161603
30.8383333778
29.4163953059
27.9202005516
26.3511355801
24.5743834638
22.737692898
21.4750762814
21.1831988565
21.5721512951
21.9458463548
21.9235471286
21.4765743701
20.082351785
19.4079370761
28.7532475994
31.1187829138
31.5612120538
30.8607648657
28.9334017936
27.617744273
27.7290939828
29.0058984317
29.5682762178
29.5446910125
29.4165898715
29.8589241382
30.1002878207
11.0343203441
10.4626331716
13.4747097482
13.7231828379
9.8736170798
10.4653408797
10.3167638037
10.7541700471
12.3678926638
14.9486032211
15.8516017512
15.5166223927
15.0155330543
12.6375041141
12.4710454549
14.3181355998
14.5052618597
14.4204834936
14.9300982055
15.9010059154
17.057733344
18.1776710235
19.0634517825
20.3561582769
23.0098067576
24.3196356848
24.2762370786
26.0849257638
25.9479863109
27.69303435
28.2608282841
27.6340291672
27.2513836465
27.798046249
28.5902489817
29.3578933431
30.1181897185
30.8896133918
31.6558653962
32.4053182244
33.1234113986
33.7874069264
34.3736235103
34.854618906
35.2046768296
35.4151419371
35.497657624
35.4685113681
35.3327909762
35.0786775036
34.6757705813
34.0811996713
33.2704665398
32.2783634875
31.1842951602
29.9869554619
28.4677073576
26.488441421
24.7208634089
24.0759789329
24.6510228365
25.5843207827
26.0426020177
25.8336900608
24.9530879473
23.1933659627
20.7315388758
20.7187245306
32.824462948
37.4112041933
35.4641834651
32.2125877933
30.5951582882
30.6786667329
31.6400732407
32.4169240942
33.170264675
33.9862952034
34.7386845888
35.4903517682
11.48209594
11.3801717691
15.1446305488
14.5196755907
12.7441526281
11.7217538432
11.3049544401
12.1951629362
11.9534308686
15.9251561807
16.5559635176
15.9151366376
15.1872079083
13.3267427173
13.2280399773
14.760236196
14.5565952943
14.5172053725
15.0355478184
15.9272754282
17.1743684801
18.6163347418
20.3380731873
20.4518899526
22.5167764868
24.6551772189
24.2000071435
26.2920080547
27.3360026194
27.0254238569
27.5061582695
27.1706260415
27.5201274009
28.1049148891
28.8389002599
29.6139871973
30.3901666374
31.1747127507
31.9574931089
32.7423515519
33.5160844791
34.2311714207
34.8481606093
35.3508033949
35.7280986881
35.9788732969
36.1174510952
36.1598345691
36.1116505829
35.9656417369
35.700912187
35.2936807785
34.7493629188
34.1174303332
33.4052883707
32.3801557292
30.7525344728
28.8391471672
27.562496632
28.0392303688
30.131054934
31.6931119665
32.2484072247
31.9817048306
30.9410600166
28.8373372568
25.6020920537
21.1071945479
28.4515844057
38.6544961094
40.866693774
36.8732423716
34.6350068875
34.2183005792
35.0251341108
36.1628152666
37.9607064611
39.2394349888
39.3788985895
39.7120157946
12.1447633199
12.066837019
14.9492710675
15.072929694
15.1168903613
12.9194813561
12.4212885551
14.970831075
12.4107464015
16.7930965121
17.0951764435
16.3210966104
15.3511257675
13.9941392094
15.6550378399
15.7949530174
14.7888167641
14.7523654537
15.2763041777
16.0483168013
17.1144529392
18.6012991795
21.5127367377
22.5056045243
22.0441838318
24.6785567877
25.7711004878
25.8859801302
27.2799811354
27.9178349612
27.7883425566
27.2145603327
27.7144108065
28.4191421392
29.1418082393
29.903703581
30.6821094789
31.4906195511
32.3048912022
33.112394032
33.927113612
34.7032476931
35.3716997823
35.9078974406
36.3205877296
36.6233324819
36.8304942048
36.954011821
37.0014705913
36.9763522097
36.87858877
36.7206309599
36.543221433
36.360827073
35.9686926595
34.8849616036
33.6543391548
33.0783935943
32.0854595574
33.8193889909
34.8930167256
34.4248695588
32.7810051898
30.890217551
27.8017654937
24.0511548595
20.5867872339
12.8373544586
12.3164738982
30.2457980252
38.077376708
36.8972179226
32.7757227875
31.4306557523
34.1205295551
39.0827441268
43.0817892478
44.7226790924
44.9207217424
45.2217390167
12.8607816001
12.8048072867
12.4543829654
15.4417871684
15.7007575631
13.752513949
13.4196453345
16.0050314507
13.1314813092
17.6997394076
17.5874256159
16.7405240249
15.6135793288
14.3507179965
16.7951976579
16.4316460625
15.2791433726
15.1699348064
15.6269770569
16.3394440604
17.1764115431
18.4648750012
21.9701439886
23.5602055096
22.3734183284
24.6520026458
26.2493358261
25.4787552213
26.8857594416
27.5335375175
27.0636690193
27.5404423892
28.1340954104
28.7845012309
29.4772010847
30.242085514
31.0241456269
31.8233155707
32.6718607483
33.5305929349
34.3817504064
35.2058707364
35.9339572243
36.5225453308
36.9865734736
37.3565523097
37.6461344469
37.8575483265
38.0031624957
38.1046389373
38.1948293621
38.3516338629
38.6415997006
38.9371463265
38.5833971055
37.4135654624
37.9264912852
32.2097258936
26.4922214707
18.5760769766
0.000725861320628
1.47406083991e-07
5.1054417859e-10
5.20896931966e-11
4.13362560167e-12
1.16435893303e-12
1.37053807275e-11
1.40035148056e-10
1.58184487137e-09
4.13163277398e-09
6.86089824966e-06
0.00180095221712
1.64339735299
37.0021624676
43.0240731012
42.2488215699
45.2084821737
49.5121854613
51.6903766361
52.0750029254
13.7546272915
13.8528488188
16.0957593063
16.1320441272
16.2034304059
14.4647674888
14.485354702
16.9077402285
14.183734308
18.498245898
18.0647674828
17.1859273402
15.9577122536
14.7717712324
17.1080031138
16.6994038886
15.7620788273
15.6505581326
16.0239608538
16.6574686466
17.4145524929
18.4463926622
21.4317332434
24.3502116834
24.5850790176
24.0793868125
26.4297638167
27.3968001655
25.9628817856
26.2663954963
26.9989751593
27.7625041022
28.480428403
29.1630983716
29.8668636868
30.6101492448
31.3997624085
32.2209341002
33.0683191202
33.9706288314
34.8827969572
35.7570562037
36.538085517
37.1871876575
37.7240926549
38.1832989584
38.5719138381
38.880624594
39.1161843324
39.3243998631
39.6145786393
40.1472204842
40.9728055613
41.6245944385
40.8277684021
37.6698201035
24.8537726531
1.73131563468e-13
1.90426766049e-16
3.56982111516e-18
6.05109142501e-20
1.75073088427e-22
4.97519501018e-25
8.61196839521e-30
6.73630722986e-30
1.63542049129e-29
1.10240271261e-28
5.16359275794e-28
1.90743374228e-27
1.21214433476e-26
9.49081955381e-27
8.23380196922e-25
4.68640910399e-22
4.71084114578e-20
3.57473264797e-18
8.23174548864e-16
1.38566179962e-11
47.9520998429
56.5955492969
55.3275381924
14.5983074756
14.7922805886
17.7313701432
16.861802649
16.4023766744
15.1745133568
15.5121072363
17.6883322406
17.6660671448
19.4950246729
18.6125981408
17.7284164392
16.3917709637
15.3322873255
17.4400254459
16.8961715249
16.215043241
16.1354324701
16.4314945949
16.9775033601
17.6917201675
18.6532261669
20.9505388546
24.5878639955
25.9048184935
23.8814113503
25.9116366112
27.4780554807
27.5242960313
26.6364936232
27.0535039705
27.9607605047
28.8211722609
29.5789553425
30.2572002989
31.0087998636
31.8005414229
32.6464295935
33.5213846171
34.4478076208
35.4186568331
36.3606897375
37.1926513403
37.8922581892
38.5160006748
39.1157957259
39.6492771453
40.0448915063
40.3027512378
40.586683361
41.1069463873
42.0363175077
43.4237590632
44.2185111517
34.6825194945
10.3112840869
9.57401396561e-20
3.87701362889e-22
1.12116958109e-23
1.63221739066e-25
1.32614213788e-28
2.21279524331e-31
1.55980952225e-32
0
0
0
0
0
0
0
0
2.16942904319e-36
7.31703503927e-34
1.0944724803e-31
6.34977883558e-29
8.86908269037e-26
4.8028349534e-21
7.2936846735e-17
5.686435945e-10
61.7903511016
15.2866964633
15.502388877
19.8416905099
17.4362722215
16.3642180464
15.7980878
16.2550196534
17.8171065582
19.2495209469
20.6314763874
19.3152016583
18.406857436
17.0751648011
16.1758318134
17.9770773199
17.2398896704
16.7392622976
16.6638960518
16.8767103582
17.3341867807
17.9730008186
18.8617519349
20.7468653379
24.4448627127
26.8693470149
26.2375173537
25.4066711187
26.8311134625
27.3280689324
26.7180196784
27.4655988711
28.3896539302
29.2956813532
30.0434000729
30.7448956355
31.4467803223
32.2518992212
33.1037185348
34.0135009855
34.9752017385
35.9874158974
37.0012396603
37.9205914059
38.6736181812
39.3819654765
40.1457403353
40.8526231675
41.3180595469
41.5656132958
41.901353915
42.6321921468
43.8940109537
45.5593808611
34.6229623508
2.58593058622
1.38609775164e-22
4.54579710679e-26
1.83813260656e-27
2.50623847515e-29
6.87278702218e-32
0
0
0
0
0
0
0
0
0
0
0
0
0
2.79530907435e-35
2.77774747939e-34
6.08942432612e-33
2.952677651e-31
1.63968965265e-27
1.36481799423e-18
2.63090698346e-23
15.818579299
16.0256936498
21.8626313003
17.8775023717
16.5505619535
16.3682565918
17.0562207315
17.2865757214
20.1876961951
21.4451036172
19.989924813
19.0968837574
17.9477326931
17.9983305793
18.7283753486
17.8226188409
17.4550391304
17.382000716
17.4291235135
17.7761155612
18.3063306702
19.1123593235
20.722452761
24.2739266804
27.2578489197
27.8419846529
25.3430493783
25.8701512861
26.2433610065
26.8048599836
27.7529910748
28.8414546992
29.7613441364
30.5545728029
31.281814429
32.0403983991
32.7692308889
33.6239095918
34.5496801001
35.5320582616
36.6181964606
37.7176275452
38.7112594049
39.4718317427
40.2120528838
41.4842318088
43.0482741439
43.6952244216
43.2384921887
43.4172082149
44.2595956019
45.5941918783
33.9300788874
7.33498139327e-17
1.10547778045e-21
4.95934713544e-33
5.01148171787e-30
8.17735708598e-32
0
0
0
0
0
0
0
0
0
0
0
0
0
0
0
0
0
0
4.31866488276e-34
2.92452852738e-33
5.39307307438e-31
97.8432200874
16.2688952631
16.4423497722
21.7283776699
17.3956673498
16.7928643779
16.8572155396
17.9596445144
17.3480683701
20.9866707523
22.1950204331
20.6233421174
19.7309537317
18.6286252747
20.1419478874
19.7576990445
18.6043651665
18.2770239034
18.435297301
18.2012328629
18.3856688726
18.7378740611
19.4101816445
20.8356999754
24.0919521048
27.1068217826
28.9085372425
27.8196394521
27.0689336901
27.0241630749
27.0066918926
28.0079073201
29.4018595086
30.2036792345
31.0776601585
32.0188973793
32.6438321631
33.3751201663
34.2409770136
35.191908586
36.1922159317
37.2639249843
38.4322534997
39.5644470904
40.6443572281
41.8295725797
43.4292624769
44.8255911269
45.1577567535
45.2753283116
45.7176540576
46.5908372274
37.3987432774
3.33566333279e-16
3.0447945137e-21
4.0018418472e-25
5.43526826909e-27
0
0
0
0
0
0
0
0
0
0
0
0
0
0
0
0
0
0
0
0
0
0
1.32884622239e-33
9.67205536062e-23
16.7726918969
16.9218566093
21.3961251069
17.1229314218
17.101497004
17.2532193066
18.7368403917
17.8376381567
21.6922473986
22.929351428
21.2458426413
20.3554999644
19.1922425627
20.916275812
20.7066227493
19.4460017828
19.0837638842
19.3374905189
19.1206697511
19.2112697614
19.3632156429
19.7667288477
21.1084319643
24.0445042601
26.8019177015
29.1914258917
28.9808147835
27.655985908
26.6271723548
27.4613456544
28.4551004939
29.818409298
30.9596998819
31.9713624073
32.8334714516
33.3600749196
34.0659622816
34.9449271051
35.9194672549
36.9618670191
38.0569672985
39.3104953187
40.7271290923
42.3074307379
43.4943397892
44.2890459118
45.3758115328
46.3231877945
47.8253088445
49.2420234729
42.481194831
3.03943797013e-15
4.03579336834e-21
6.95951874936e-25
1.42743313521e-27
3.45609020232e-29
1.1600921677e-31
0
0
0
0
0
0
0
0
0
0
0
0
0
0
0
0
0
0
0
0
0
2.23317076966e-34
2.95468890143e-34
17.5091317567
17.6577456058
21.1131499654
17.4273682826
17.6574282995
17.7409356477
18.7886987229
18.5604423993
22.2139369227
23.6273683999
21.8955222972
21.0206568927
19.8611449389
21.6117583132
21.5521531558
20.3594793825
19.9362991041
20.2096860157
20.017918944
20.1774937974
20.2485530981
20.2785357242
21.5738648566
24.1990697502
26.6431872415
29.2405125948
29.5234988414
28.4525081457
27.151173918
27.6676404315
28.9936704969
30.0015367894
31.0403909843
32.2410805203
33.7234150095
34.3761219883
35.0019414166
35.7609771354
36.7038470339
37.8210391245
39.0273248063
40.4131107542
42.3783635202
44.1262936006
44.714031929
45.3960074524
47.0119767107
50.2494489473
54.551169535
46.4429415814
8.68376894037e-16
1.44252648741e-22
5.96951193449e-27
1.95720705149e-30
1.22804246256e-32
2.48914255072e-32
3.82239412985e-33
0
0
0
0
0
0
0
0
0
0
0
0
0
0
0
0
0
0
0
0
0
1.65060205531e-35
7.49489892269e-35
18.6189900013
18.73101411
21.4389612105
18.3594236201
18.7949991263
18.5909473364
19.132360466
19.8449059484
22.313076868
24.1614181295
22.6009911941
21.7490056283
20.6290716252
22.4022151158
22.4213698742
21.4231911337
20.9582542347
21.2166609381
20.9219899012
21.2346979556
21.4298303383
21.00379709
22.1222003425
24.5607172024
26.6859854926
29.0869206269
29.7578764195
29.1386465764
29.0313462537
28.4966776265
29.3493107587
30.6971355211
32.2745228193
32.8257249584
34.0289490663
35.375962922
36.0605252788
36.8721989867
37.7260962722
38.7698848578
40.110930404
42.1411785348
44.6621807651
45.7483997282
45.9416058106
47.3133775514
51.5635305393
58.7019645594
52.6859369951
21.5897866096
2.18550549579e-24
2.04046737938e-29
1.39615504535e-31
0
0
0
0
0
0
0
0
0
0
0
0
0
0
0
0
0
0
0
0
0
0
0
0
0
0
0
20.1670433915
20.0602628625
22.2790876709
20.2037322963
20.7026410632
19.8395657588
20.077111896
21.6938963987
22.5683430682
24.7931713798
23.4127487588
22.5501640098
21.470767828
23.2283298264
23.2855982875
22.5904268495
22.4327380868
22.5248871338
21.9189177653
22.3791470567
22.8949118316
22.0234395828
22.5633665293
25.0157952302
26.9384080635
28.9613616109
29.906124638
29.3171712473
30.1989361077
30.0426880272
30.3536617933
30.4788406563
32.0845379193
33.9651180123
34.9688773
36.1360823601
37.1187320819
37.9718572086
38.9505131806
40.0180682335
41.7258094722
44.6905426787
46.9241947007
47.544629058
48.3253963331
51.6700386743
58.8474533582
55.6699024414
31.628042048
1.95038296753e-26
3.40968108752e-29
1.56124949542e-31
0
0
0
0
0
0
0
0
0
0
0
0
0
0
0
0
0
0
0
0
0
0
0
0
0
0
0
0
21.7987589158
21.3054922356
23.1755377637
22.6356097715
22.3825530235
21.2722727176
21.1067147471
22.8133894368
21.9038521459
25.2901091159
24.3129018618
23.4154916778
22.3750458171
24.0610746127
24.0865079022
23.567158026
24.434345741
24.0901370037
23.0289727198
23.6261135185
24.2103098534
23.3160003743
22.763572281
25.0150152574
27.1100277859
28.8688918501
29.9520234616
29.3883652553
30.5919697192
31.3068827589
31.7262370317
31.2443272527
32.2634128851
33.9330823417
35.8630805422
37.3354921852
38.4012324373
39.2346187657
40.2004276802
41.6258037492
44.3954338572
47.5863395563
49.396922858
50.4514066321
52.7904591963
57.6543588992
54.0807813811
31.1320689638
5.25157509065e-26
7.60276292589e-29
2.66263424673e-31
0
0
0
0
0
0
0
0
0
0
0
0
0
0
0
0
0
0
0
0
0
0
0
0
0
0
0
0
0
22.6033282625
22.1629334409
23.7392313959
23.6679758584
23.4258667888
22.611983832
22.2679979259
24.1555436717
22.9357508282
25.9169057357
25.2218579229
24.3167999633
23.3363101479
24.9142124387
24.8855958906
24.3771042769
25.3996246663
25.192510017
24.0876378369
24.8320772559
24.9516134527
24.1311310333
23.7297675767
23.9627714731
26.5724725032
28.3333799772
29.7025648883
29.3173764788
30.6375434744
31.8434518725
32.8555604322
32.9862107664
32.6752218661
33.9891979037
36.089073019
38.1987389312
39.7966493831
40.8841051072
41.8421606322
44.1919353256
47.7185321592
50.6140060041
52.2631400148
54.2408755795
58.2154822442
54.9060505345
28.8086106636
13.749945623
2.49911795127e-28
7.11761730692e-31
0
0
0
0
0
0
0
0
0
0
0
0
0
0
0
0
0
0
0
0
0
0
0
0
0
0
0
0
0
0
22.6782834226
22.6749655562
24.0627285055
23.8715971793
24.0693915895
23.6366657987
23.2678883559
25.4733032712
24.5713176548
26.70636272
26.1798829054
25.2389815137
24.3496676366
25.8030152969
25.7424783613
25.3013439264
26.1989469447
26.1428918394
25.1753029976
25.837063906
24.8708035121
24.8712818513
24.7322031964
24.9843307651
25.7852746133
26.8671966414
28.7957965939
29.0151769786
30.1934418453
31.8378654558
33.2862133728
34.3121263203
34.1652905106
34.7643020273
36.3054917078
38.4104916152
40.7152522184
42.6014337886
44.2226493957
47.5072858929
51.0849134016
53.5271471109
54.902866314
56.8414101094
52.5718472948
34.6657146314
37.2520255059
8.68082543715e-28
1.94458610336e-30
0
0
0
0
0
0
0
0
0
0
0
0
0
0
0
0
0
0
0
0
0
0
0
0
0
0
0
0
0
0
0
22.8865591499
23.0132824082
24.3205408827
23.0193234392
24.3255378095
24.1839359691
23.9215851486
26.0697400473
25.3967837402
27.4907211557
27.156573637
26.1490029146
25.4200661478
26.7146274893
26.6328312048
26.3520587883
27.0953341059
27.2023691783
26.3899620616
27.2189439222
26.1895386724
26.4377561524
25.9681307007
26.2722608152
27.5056970853
28.137399424
28.3544195293
28.6285765687
29.6794441227
31.6915643353
33.2027280287
34.5117988295
35.390268421
35.8275526585
37.5244251534
39.1134557289
41.4527984621
44.1795036488
47.1478001964
51.065522295
54.2990650661
56.0359408745
55.7616660454
52.93158623
50.7534193798
31.6576801918
7.28430817007e-27
1.65830839906e-29
0
0
0
0
0
0
0
0
0
0
0
0
0
0
0
0
0
0
0
0
0
0
0
0
0
0
0
0
0
0
0
0
23.5208006182
23.6123220228
24.5877104904
23.3692778803
24.537210783
24.4641693944
24.3569268714
26.2535291702
25.9480269848
28.0569837742
28.0915959254
26.9863530098
26.5320169305
27.599293255
27.471760489
27.361330423
27.9558596497
28.3390266974
27.6510444773
28.6259704189
27.9286990093
28.4214312505
28.2759143708
27.2903236918
28.294484664
29.208079421
29.4142981195
28.3445100046
29.0881779393
31.4804612531
33.2324351852
34.1328518458
35.1729180336
36.0877696273
37.8753149845
39.7434091104
42.2877423608
45.7611849114
50.2533042298
54.729418296
57.2995500469
57.6731507955
55.5264553421
50.4701034225
32.0860188174
38.0091679876
1.15557448519e-28
4.68588022897e-31
0
0
0
0
0
0
0
0
0
0
0
0
0
0
0
0
0
0
0
0
0
0
0
0
0
0
0
0
0
0
0
0
24.3270571186
25.3206987308
24.9882840688
24.2403793394
25.0020678886
24.7844000797
24.7572434264
26.3892279856
26.4318204062
28.2745748531
28.9741865705
27.7100769202
27.4984992233
28.3070754047
28.235604904
28.1116041547
28.2881126209
29.3562515983
28.9545154593
29.8453167887
29.7887779452
29.742396913
29.6615465921
29.3266433719
28.6890598151
29.3724689634
30.2577228506
27.8110449739
28.4419572569
30.6976760421
33.145604597
34.4999835901
35.6468224017
35.963970327
37.6255707985
39.8859849224
42.762272097
47.2181643962
53.3612871362
58.2713614873
59.8348945966
56.3640549111
54.4899668477
55.099779103
37.1130273207
7.83258868483e-28
1.99906502694e-30
0
0
0
0
0
0
0
0
0
0
0
0
0
0
0
0
0
0
0
0
0
0
0
0
0
0
0
0
0
0
0
0
0
24.8998687486
25.9372392285
25.5896982135
25.0004768705
25.5940243029
25.2495931296
25.2021928344
26.5799230434
26.8819530171
28.2185717637
29.7324649886
28.3711155936
28.057250547
28.8595113639
29.0229494695
28.7582682176
28.5297326791
30.0664727854
30.2586352951
30.8939407752
31.0723323624
31.3080002745
30.3099826989
30.3421501472
29.8924916838
30.8658356994
31.4731431358
29.2368391421
27.8070609199
29.5176036586
32.2399141543
34.4441821103
35.7604130352
36.3128625776
37.0859106288
39.4164006261
42.5663778429
48.2885586568
56.3184668927
61.8555451756