/*--------------------------------*- C++ -*----------------------------------*\
| =========                 |                                                 |
| \\      /  F ield         | OpenFOAM: The Open Source CFD Toolbox           |
|  \\    /   O peration     | Version:  v1806                                 |
|   \\  /    A nd           | Web:      www.OpenFOAM.com                      |
|    \\/     M anipulation  |                                                 |
\*---------------------------------------------------------------------------*/
FoamFile
{
    version     2.0;
    format      ascii;
    class       volVectorField;
    location    "784";
    object      Ua;
}
// * * * * * * * * * * * * * * * * * * * * * * * * * * * * * * * * * * * * * //

dimensions      [0 1 -1 0 0 0 0];


internalField   nonuniform List<vector> 
6400
(
(2.54984186319e-05 3.28753581969e-05 0)
(6.83603810523e-05 2.44761133075e-05 0)
(9.94523288203e-05 1.9764030293e-05 0)
(0.000132759284195 1.79261967458e-05 0)
(0.000158659549021 1.30066243387e-05 0)
(0.00017910039621 9.34466790524e-06 0)
(0.000193571216028 8.34414356636e-06 0)
(0.00020778467042 1.12491197881e-05 0)
(0.000235162964924 1.48305830222e-05 0)
(0.000263869798902 1.51594202405e-05 0)
(0.000283053743479 1.46072468009e-05 0)
(0.000311686106128 1.57434822221e-05 0)
(0.000340436691989 1.58823800732e-05 0)
(0.000367652411932 1.54400113742e-05 0)
(0.000393181902559 1.57080169043e-05 0)
(0.000420819668382 1.73425370121e-05 0)
(0.00045255968541 1.83499289788e-05 0)
(0.000483854482626 1.82381097521e-05 0)
(0.000513497963453 1.78805110676e-05 0)
(0.000544694223416 1.84860247431e-05 0)
(0.000580962561683 2.12442488644e-05 0)
(0.000621610593815 2.38343689289e-05 0)
(0.00066387021823 2.46584987079e-05 0)
(0.000705115137535 2.46856797282e-05 0)
(0.000745919389713 2.44054390699e-05 0)
(0.000787045102361 2.41444291286e-05 0)
(0.000829229036233 2.43986893759e-05 0)
(0.000871460107372 2.45505449416e-05 0)
(0.000912889363974 2.44186248124e-05 0)
(0.000953595577458 2.43856963698e-05 0)
(0.000993588525712 2.47677659238e-05 0)
(0.00103480164285 2.50200823134e-05 0)
(0.00107742278299 2.50917850901e-05 0)
(0.00112005265788 2.58690274914e-05 0)
(0.0011635802297 2.65505513734e-05 0)
(0.00121029907513 2.70794454014e-05 0)
(0.00125608890102 2.76023039557e-05 0)
(0.0012969808793 2.72919550983e-05 0)
(0.0013417916137 2.66019009431e-05 0)
(0.00138946827867 2.62199530389e-05 0)
(0.00143268315711 2.66417320136e-05 0)
(0.00146930461033 2.58276727158e-05 0)
(0.00150352006977 2.29426837093e-05 0)
(0.00153682137971 2.08498246202e-05 0)
(0.00156761008606 1.97856348071e-05 0)
(0.00159596559292 1.86187888276e-05 0)
(0.00162162632485 1.730527583e-05 0)
(0.0016439497572 1.56202962139e-05 0)
(0.0016629072522 1.3905796137e-05 0)
(0.00167829368714 1.33784480384e-05 0)
(0.00169172290947 1.42817163221e-05 0)
(0.00170678196564 1.33668639642e-05 0)
(0.00171648464733 8.15993005561e-06 0)
(0.00172309830531 4.90137280676e-06 0)
(0.00171880288497 1.72592252012e-06 0)
(0.00169611555492 -3.50269502647e-06 0)
(0.00167173008364 -2.82438547284e-06 0)
(0.0016624870349 7.92539650589e-07 0)
(0.00165738776305 -6.00711139608e-07 0)
(0.00162923294811 -1.73393361944e-06 0)
(0.00160674266224 3.8280742925e-06 0)
(0.00159000000787 1.21740357158e-06 0)
(0.00164183804775 -1.85371663761e-05 0)
(0.00159901924712 -5.11436211936e-05 0)
(0.00135375396183 -5.65354661673e-05 0)
(0.00119902917788 -4.36891728831e-05 0)
(0.00112026221493 -4.44766459582e-05 0)
(0.00106068634792 -4.53847305062e-05 0)
(0.000997196644072 -4.80932240361e-05 0)
(0.000902273192287 -5.26144238472e-05 0)
(0.000799311669504 -5.50704582788e-05 0)
(0.00067929240384 -5.39416923154e-05 0)
(0.000565044187995 -5.31634176293e-05 0)
(0.000487735706942 -5.59732716701e-05 0)
(0.000354993330429 -4.35570098239e-05 0)
(0.000303547899395 -3.73896116133e-05 0)
(0.000195909712859 -2.26518197981e-05 0)
(0.000199625905572 -3.02049794285e-05 0)
(8.46239404637e-05 -2.07444683508e-05 0)
(6.30313919666e-05 -3.80018834002e-05 0)
(9.90890409089e-06 4.65177650924e-05 0)
(4.22199259605e-05 5.1594417721e-05 0)
(7.31530261167e-05 4.63243847534e-05 0)
(9.40979409314e-05 3.80770309721e-05 0)
(0.00013424114709 3.80790972924e-05 0)
(0.000170014293686 2.92050650398e-05 0)
(0.000193589539625 2.28490728817e-05 0)
(0.000213678524281 2.95629756702e-05 0)
(0.000236296418615 3.69404635522e-05 0)
(0.000261504239821 3.80370835633e-05 0)
(0.000286779252066 3.78347132705e-05 0)
(0.000311875723049 3.873943549e-05 0)
(0.000337391983754 3.85045400743e-05 0)
(0.000363158803199 3.79472102389e-05 0)
(0.000390531997581 3.92805834732e-05 0)
(0.000419469241649 4.48041783766e-05 0)
(0.000450080054736 4.85092760513e-05 0)
(0.000479761591539 4.55648161483e-05 0)
(0.000501759942054 4.35025544186e-05 0)
(0.000535228785742 4.67684561622e-05 0)
(0.000575173935602 5.42730071878e-05 0)
(0.000617766115481 6.17844972144e-05 0)
(0.000662216400821 6.37030520675e-05 0)
(0.000704426971465 6.18366407229e-05 0)
(0.000741879628197 6.05235066896e-05 0)
(0.000784619277748 6.08010739889e-05 0)
(0.000827663096758 6.09473180637e-05 0)
(0.000869134170524 6.05545265387e-05 0)
(0.000910205580688 6.00932842319e-05 0)
(0.000951401482418 5.9985820242e-05 0)
(0.00099226181375 6.05882683457e-05 0)
(0.00103135875354 6.08386356578e-05 0)
(0.00107399109025 6.05528629581e-05 0)
(0.00111648142797 6.27402602387e-05 0)
(0.00115927236345 6.53649821756e-05 0)
(0.00120894090256 6.55922127909e-05 0)
(0.00125352444719 6.60708661916e-05 0)
(0.00129457766193 6.61680223994e-05 0)
(0.00134150616282 6.45829649764e-05 0)
(0.00139314399118 6.1780479515e-05 0)
(0.00143723673379 5.68990280345e-05 0)
(0.00145656667068 5.10431184599e-05 0)
(0.00148122974673 4.71658080558e-05 0)
(0.00151672298308 4.4855612528e-05 0)
(0.00154899466433 4.24369844896e-05 0)
(0.00158031787644 3.93468580832e-05 0)
(0.00160993569702 3.53741801548e-05 0)
(0.00163502183349 3.06336003033e-05 0)
(0.0016593019334 2.55663138935e-05 0)
(0.00167940739228 2.08122773686e-05 0)
(0.00169041521168 1.70195659601e-05 0)
(0.00168741998336 1.33831878311e-05 0)
(0.00168843554486 9.02782476099e-06 0)
(0.00172318695995 5.75436349491e-07 0)
(0.00171346645584 -1.39331575096e-05 0)
(0.00169873491688 -2.42424409469e-05 0)
(0.00170083019973 -2.39074764421e-05 0)
(0.00169286157036 -2.14782419423e-05 0)
(0.00167794357587 -2.59273504895e-05 0)
(0.00166455006414 -3.10588255331e-05 0)
(0.00164850313236 -3.34823732277e-05 0)
(0.00157773386544 -4.11065284575e-05 0)
(0.00162541962462 -9.46967198103e-05 0)
(0.00155732900034 -0.000184558854288 0)
(0.0013521659355 -0.000210526792072 0)
(0.00113421057173 -0.000164834884818 0)
(0.00102345107963 -0.000124409393528 0)
(0.00101172107935 -0.000117298800126 0)
(0.000954524230641 -0.00013370214383 0)
(0.000882966277917 -0.000159601928445 0)
(0.000771570992743 -0.000173898253706 0)
(0.000648265587203 -0.000169081581242 0)
(0.000521341509326 -0.000145259242158 0)
(0.000460646345616 -0.000138069597602 0)
(0.000384309721637 -0.000124702959952 0)
(0.000318344651134 -0.000110098217486 0)
(0.000253701114387 -9.11860666956e-05 0)
(0.000196634620389 -9.02283654505e-05 0)
(0.000120089527568 -9.3034771896e-05 0)
(5.50957658017e-05 -0.000149222688744 0)
(1.33745507709e-05 8.02118156765e-05 0)
(3.89616469245e-05 8.56773426252e-05 0)
(6.09489443675e-05 8.00688225243e-05 7.08889734523e-29)
(0.000100911034356 8.05415950832e-05 -6.46345438917e-29)
(0.000138310545181 7.99258491258e-05 -5.59889164691e-29)
(0.00016383086313 6.77119837642e-05 5.07078650492e-29)
(0.000184305854406 4.63585161584e-05 -5.04344274289e-29)
(0.000204750271609 5.19336576146e-05 4.83168323297e-29)
(0.000228066978143 6.19656696344e-05 0)
(0.000254013674812 6.50103153619e-05 0)
(0.000280383223603 6.48093582107e-05 0)
(0.000305807364838 6.4262609611e-05 0)
(0.000330910502528 6.38469038658e-05 0)
(0.000356114038734 6.51384194572e-05 0)
(0.000383732722949 6.90378383925e-05 0)
(0.000412975880203 7.19245538465e-05 0)
(0.000410718059694 6.73309798668e-05 0)
(0.000421822997268 6.52496503284e-05 0)
(0.000454341593701 7.25617515861e-05 0)
(0.000501523212266 8.81283223109e-05 0)
(0.000569780808259 0.000104275627523 0)
(0.000618434420808 0.000109173002809 0)
(0.00065441080771 0.000107053815968 0)
(0.000696071443256 0.000104661266419 0)
(0.00073925882615 0.00010389549524 0)
(0.000780296916686 0.000104041373835 0)
(0.000821369471883 0.000103693873479 0)
(0.000863051552185 0.000103168758587 0)
(0.000904549621827 0.000102860205373 0)
(0.000945600934035 0.00010296240406 8.38611617167e-29)
(0.000987579279751 0.000103284732502 -8.09386348863e-29)
(0.00102497744772 0.000103406072102 0)
(0.00106710642486 0.000104177088851 0)
(0.00111516529375 0.000106510178157 0)
(0.001149723335 0.000111161482169 0)
(0.00120009036453 0.000114752322286 0)
(0.00125415607326 0.000113965848209 0)
(0.00128992501119 0.000113166673432 0)
(0.00133802519945 0.000113577470269 0)
(0.00139060797591 0.000108640498393 0)
(0.00143491513416 9.66637224281e-05 0)
(0.00147073638091 8.5954427754e-05 0)
(0.00150437360251 8.18725808767e-05 0)
(0.00153771198796 7.94934631991e-05 0)
(0.00156879224185 7.56257251623e-05 0)
(0.00159716209852 7.04898000102e-05 0)
(0.00162293172062 6.39746328268e-05 0)
(0.00164604389017 5.66199592046e-05 0)
(0.00166656397592 4.8444975369e-05 0)
(0.00168409224057 3.89077361367e-05 0)
(0.0016980546846 2.91138193681e-05 0)
(0.00170869568612 2.24470852343e-05 0)
(0.00171698804255 1.88285994887e-05 0)
(0.00171627671307 5.83848605153e-06 0)
(0.00170623201521 -1.33817813291e-05 0)
(0.00170731907255 -2.37311775026e-05 0)
(0.00170507290201 -2.74561345795e-05 0)
(0.0016939549346 -3.15719526878e-05 0)
(0.00167815778804 -3.77311443923e-05 0)
(0.00165974739069 -4.63617567048e-05 0)
(0.00163079496452 -6.20927607832e-05 0)
(0.00160464234518 -9.15183024642e-05 0)
(0.00157341343551 -0.000196990258468 0)
(0.00141224999159 -0.000327116208263 0)
(0.00116286259989 -0.000318801468415 0)
(0.00106391667831 -0.000256778983768 0)
(0.00102135038925 -0.000207711931354 0)
(0.000949664625935 -0.000192155788859 0)
(0.000876178461216 -0.000218153031256 0)
(0.000788709408088 -0.000254998178423 0)
(0.000681509502982 -0.000268756524287 0)
(0.000582733072046 -0.000252768293414 0)
(0.000519508680925 -0.000230723292132 0)
(0.00045812686647 -0.000218901330867 0)
(0.000379892998164 -0.000205939483483 0)
(0.000301728187709 -0.000183691644528 0)
(0.000230855186494 -0.000159671960345 0)
(0.000174182816056 -0.000164608833115 0)
(0.000119545539867 -0.000207770390635 0)
(3.01962438167e-05 -0.000203090819863 0)
(1.22078064999e-05 0.000115656161696 0)
(1.91628896951e-05 8.19783751029e-05 0)
(4.75666001818e-05 0.000117844445085 0)
(8.33974079167e-05 0.000117860813698 0)
(0.000118012640562 0.000104425812759 0)
(7.56196750037e-05 4.7965703994e-05 0)
(9.73504091335e-05 5.27894097631e-05 0)
(0.000174080385042 9.15281692398e-05 0)
(0.000211192793612 9.70477485099e-05 0)
(0.000240930313937 9.39405109278e-05 0)
(0.000269678508641 9.20907482636e-05 0)
(0.000296381157186 8.98859073737e-05 0)
(0.00032183566212 8.91236574134e-05 0)
(0.000344846561899 8.80549627611e-05 0)
(0.000350518172817 8.26819363366e-05 0)
(0.000355560158991 7.85468125482e-05 0)
(0.000374546914287 8.164246324e-05 0)
(0.000413078959453 9.770244117e-05 0)
(0.000473966667848 0.000123573181144 0)
(0.000531199093244 0.000146110991426 0)
(0.000568699336632 0.00015258939426 0)
(0.000607586891877 0.000150645165323 0)
(0.000648956120571 0.000148323521631 0)
(0.000689791398044 0.000146737185613 0)
(0.000730364733032 0.000145418838705 0)
(0.000770907856986 0.00014464483521 0)
(0.000811766121633 0.000144442127804 0)
(0.000854440321739 0.000144430130283 0)
(0.000895339530559 0.00014408716638 0)
(0.000938536619444 0.000144386565337 0)
(0.000976996819546 0.000144268465874 0)
(0.00102060845259 0.000144630264032 0)
(0.00105551575522 0.000144166486866 0)
(0.0011019205821 0.000149300035756 0)
(0.00115613935014 0.000157512903805 0)
(0.00119453591681 0.000161963074484 0)
(0.0012481166843 0.000162834452933 0)
(0.00130164196376 0.000161785612679 0)
(0.00134676708989 0.000159674834364 0)
(0.00139007329664 0.000151592056314 0)
(0.00143165878247 0.000137782125337 0)
(0.00146972018335 0.000124723789907 0)
(0.00150526871363 0.000116512249291 0)
(0.00153897175665 0.000110729524562 0)
(0.00157013291204 0.00010438615275 0)
(0.00159857299461 9.67621840801e-05 -6.92733435162e-29)
(0.0016243803221 8.78720840857e-05 6.95728456227e-29)
(0.00164753276103 7.79386040845e-05 0)
(0.0016679914496 6.69725533805e-05 0)
(0.00168551667668 5.49962599803e-05 0)
(0.0016996999467 4.29707563421e-05 0)
(0.00171007223528 3.19468600381e-05 0)
(0.00171605100818 1.9765516764e-05 0)
(0.00171636607117 2.75118875949e-06 0)
(0.00171332340774 -1.4408560873e-05 0)
(0.0017103006565 -2.67415515902e-05 0)
(0.00170423355836 -3.67386868197e-05 0)
(0.0016916561062 -4.67313307499e-05 -1.29467006279e-28)
(0.00167249444594 -5.84660863979e-05 1.49053897122e-28)
(0.00164521429677 -7.54954439218e-05 0)
(0.00160423638201 -0.000106310123194 0)
(0.00154506141305 -0.000177708534626 0)
(0.00143967326866 -0.000324876012905 0)
(0.00131280058905 -0.000466115992766 0)
(0.00120715725978 -0.000466863335311 0)
(0.00102028188244 -0.000336603589187 0)
(0.000925949189715 -0.000272087408973 0)
(0.000864985799749 -0.000269194287001 0)
(0.000798608599127 -0.000301284930593 0)
(0.000736944223122 -0.00035103809336 0)
(0.000655341861037 -0.0003703638092 0)
(0.000570079873331 -0.000348701245771 0)
(0.000485357315206 -0.000317327415139 0)
(0.000383644333852 -0.000285796447831 0)
(0.000309728474411 -0.000271769637701 0)
(0.000242017212041 -0.000261431487005 0)
(0.00017029555474 -0.000231452369006 0)
(9.76623938757e-05 -0.000183086197664 0)
(7.11872011429e-05 -0.000228977195522 0)
(2.37578462001e-05 -0.000262818891353 0)
(1.06289466893e-06 0.000116690897735 0)
(9.80364832008e-06 9.84017744293e-05 0)
(3.95563442987e-05 0.000149678274855 0)
(6.77969184667e-05 0.000142244030669 0)
(7.80276439695e-05 0.000104054644344 0)
(6.60312016703e-05 6.54575518911e-05 0)
(0.000113639623921 0.00010380602981 0)
(0.000165329091119 0.000138078046945 0)
(0.000191610013103 0.000131878158422 0)
(0.000223086891061 0.000124890957544 0)
(0.000253515763191 0.000122286163148 0)
(0.000281364330494 0.000118291973917 0)
(0.000297014699704 0.000107734401364 0)
(0.000293055510029 9.30304395134e-05 0)
(0.000311865785899 9.38886686906e-05 0)
(0.000344890954428 0.000105813516388 0)
(0.00039109706139 0.000126499352767 0)
(0.000443200720823 0.000152995018474 0)
(0.000486716900817 0.000173795431209 0)
(0.000518358137952 0.00018272673293 0)
(0.000555975403583 0.000188703661311 0)
(0.0005973919228 0.000191409900378 0)
(0.00063759646046 0.000189996907504 0)
(0.000677950975161 0.000187619789744 0)
(0.000718178394549 0.000185922564545 0)
(0.000758298618838 0.00018553472922 0)
(0.000800691411075 0.000185988800295 0)
(0.000840707164903 0.000185736640044 0)
(0.000885546819149 0.000186158044588 0)
(0.000923337957798 0.000185209002792 0)
(0.000969664845196 0.000186211735031 8.04650740347e-29)
(0.00099884958569 0.000184427730919 -7.69038720114e-29)
(0.0010509149371 0.000189622213976 0)
(0.00110411834789 0.000197134189444 0)
(0.00114595590027 0.000204561993075 0)
(0.00120285700589 0.000212972753332 0)
(0.00125340390498 0.00021507994423 0)
(0.00130052327348 0.000210286831889 0)
(0.00134521858429 0.000202766855266 0)
(0.00138829914373 0.00019231051987 0)
(0.00142995918089 0.000178274259492 0)
(0.00146928261789 0.000164001537705 0)
(0.00150608671527 0.000152626507618 0)
(0.00154039428323 0.000143347073925 0)
(0.00157191735793 0.000134063263667 0)
(0.00160062915812 0.000123789724566 0)
(0.0016266097103 0.000112337302877 0)
(0.00164984631999 9.97594646508e-05 0)
(0.00167024363973 8.60416005819e-05 0)
(0.0016875796141 7.12545130957e-05 0)
(0.00170147453091 5.58862482995e-05 0)
(0.0017113563084 4.01422616083e-05 0)
(0.00171659236804 2.27897750388e-05 0)
(0.00171701029608 3.02841894534e-06 0)
(0.00171431771157 -1.62339180461e-05 0)
(0.00170969842944 -3.28953778547e-05 0)
(0.00170041980302 -4.88809432867e-05 0)
(0.00168281645038 -6.67497698843e-05 0)
(0.00165405666161 -8.96981797436e-05 0)
(0.00160959508655 -0.000124508708413 0)
(0.00154262055087 -0.000184547487585 0)
(0.0014489281628 -0.000288932937688 0)
(0.00132253648958 -0.000434148150759 0)
(0.00124592981549 -0.00055745322551 0)
(0.00118837804218 -0.000576575853723 0)
(0.0010336512542 -0.000470938620788 0)
(0.000908653477784 -0.000388161049798 0)
(0.000807525346144 -0.000359400952782 0)
(0.000723368761555 -0.000376555404674 0)
(0.000657785522979 -0.000421867849151 0)
(0.000592192988845 -0.000456347317257 0)
(0.000505334746463 -0.000441338767215 0)
(0.000396540520171 -0.000387513454267 0)
(0.000321946141399 -0.000363044415099 0)
(0.0002522380394 -0.000353777463407 0)
(0.000183568792237 -0.000337260696996 0)
(0.00012021309217 -0.000275337723423 0)
(7.60323811097e-05 -0.000231737367589 0)
(4.72776829099e-05 -0.000283741982926 0)
(1.14886706194e-05 -0.000290750320037 0)
(-6.15231644667e-07 0.000109013957887 0)
(1.02918458293e-05 0.000117069158019 0)
(3.65723157579e-05 0.000168672822699 0)
(5.33660445366e-05 0.000150349518211 0)
(4.310095946e-05 8.44922173558e-05 0)
(6.22499034354e-05 9.05386139292e-05 0)
(0.000126836860575 0.000154649060301 0)
(0.000149783203102 0.000164171234801 0)
(0.000173293240258 0.000159966973566 0)
(0.000201949041833 0.000156515156228 0)
(0.000232161496469 0.000148700469081 0)
(0.000233519872419 0.000126010298639 0)
(0.000226153195709 0.000103100047678 0)
(0.00025183785668 0.000107941587932 0)
(0.000287010144909 0.000126012025429 0)
(0.000340635856712 0.000153573101324 0)
(0.000394172436421 0.000178569295441 0)
(0.000436355988067 0.000195195132889 0)
(0.000463841407197 0.000204110729263 0)
(0.000502096312181 0.000217809243862 0)
(0.000543992929831 0.000228869015727 0)
(0.000583058516675 0.000231624154932 0)
(0.0006223736932 0.000230367643838 0)
(0.00066204740909 0.000228225179395 0)
(0.000703720340027 0.000227162159104 0)
(0.000743925815444 0.000226137727134 0)
(0.000780808786021 0.000226533032382 0)
(0.000828818580128 0.000228857391113 0)
(0.000863380207683 0.000226384473365 0)
(0.000913954505585 0.000227151212086 0)
(0.000938469611278 0.000223663982421 0)
(0.000995178478006 0.000230868146427 0)
(0.00102626823881 0.000234678194905 0)
(0.001089903094 0.000247626620071 0)
(0.00115239802065 0.000260258292128 0)
(0.00120397302157 0.000266014612119 0)
(0.00125156646374 0.000263324304516 0)
(0.00129776321408 0.000256046281797 0)
(0.00134270624355 0.000246388308624 0)
(0.00138643530587 0.000234239427998 0)
(0.00142872917612 0.000219362963902 0)
(0.00146901596854 0.000203688780598 0)
(0.00150684411118 0.000189460569327 0)
(0.00154190440234 0.000176729449378 0)
(0.00157400608411 0.000164245054379 0)
(0.00160314716956 0.000151086741147 0)
(0.00162940133989 0.00013689272708 0)
(0.0016527261422 0.000121542986307 0)
(0.00167297019223 0.000104938957309 0)
(0.00168990740969 8.70649105522e-05 0)
(0.00170319063079 6.80542765824e-05 0)
(0.00171231552342 4.78346743895e-05 0)
(0.00171684906546 2.59583745126e-05 0)
(0.00171691453849 2.75720474612e-06 0)
(0.00171327573088 -2.01551902577e-05 0)
(0.0017053731779 -4.26798708714e-05 0)
(0.00168976569008 -6.74301852561e-05 0)
(0.00166188617857 -9.8080418983e-05 0)
(0.0016171634545 -0.000139657793505 0)
(0.00155017587709 -0.000199577671946 0)
(0.00145894594841 -0.000286669437121 0)
(0.00134905107372 -0.000401338253071 0)
(0.00121054193142 -0.000513254699857 0)
(0.00119189447629 -0.000646497562615 0)
(0.00107649927113 -0.000654046893274 0)
(0.000942024765795 -0.000563181133907 0)
(0.000847659650398 -0.000498473856104 0)
(0.000745842606645 -0.000458743087111 0)
(0.000648464954975 -0.000454127354845 0)
(0.000586994384327 -0.000505268654719 0)
(0.00051995630802 -0.000552895492059 0)
(0.000415425322162 -0.000508317099694 0)
(0.000332612653685 -0.000459383307451 0)
(0.000266350468293 -0.000444061002454 0)
(0.000193167365871 -0.000428055085235 0)
(0.000137479085251 -0.00039643928097 0)
(8.74571176931e-05 -0.00030759706413 0)
(5.32799649603e-05 -0.00026820429154 0)
(2.97611906052e-05 -0.000313659499785 0)
(7.89114332443e-06 -0.000309274336592 0)
(2.9143234681e-06 0.000116691651385 0)
(2.05737972288e-05 0.000146660143 0)
(4.33618917721e-05 0.000180485847317 0)
(4.79557796772e-05 0.000176757598025 0)
(3.67513535038e-05 0.000105893351227 0)
(7.96918259052e-05 0.000148013772756 0)
(0.000118773900871 0.000181782063229 0)
(0.000133800516745 0.000183813858149 0)
(0.000154925168607 0.000182751722253 0)
(0.000175199424055 0.000179940288848 0)
(0.000206913987473 0.000170341524941 -2.29489253718e-28)
(0.0001785138206 0.000119908314133 1.5285828465e-28)
(0.000207707111081 0.00012497876327 0)
(0.000234281309732 0.000141416889997 0)
(0.000282899975005 0.000174380601587 0)
(0.000339029122968 0.000208600207329 0)
(0.000380859991217 0.000223193870378 0)
(0.00040283052717 0.00022387230349 0)
(0.000442016359454 0.000239479745773 0)
(0.000487278440546 0.000259183206897 0)
(0.000525422540718 0.000268183523948 0)
(0.000564562492459 0.000270942555492 0)
(0.000604516835156 0.000270863508305 0)
(0.000644746998712 0.000268848326627 0)
(0.00068284573108 0.000265952973675 0)
(0.00072000242314 0.000264830722508 0)
(0.000766456423895 0.000268008491601 0)
(0.000797046013243 0.000268063137058 0)
(0.000852285434277 0.000270226229337 0)
(0.000873631966038 0.00026110798906 0)
(0.000933668839251 0.00026910001933 0)
(0.000965775896617 0.000275019363847 -7.61185068056e-29)
(0.0010283175195 0.000289507184025 7.63231242855e-29)
(0.00108526414132 0.000306030451398 0)
(0.00114964797837 0.000317955002579 0)
(0.00120020703386 0.000317304121313 0)
(0.00124711606555 0.000310774738135 0)
(0.00129365743215 0.000301790542514 0)
(0.0013396579775 0.00029078775329 0)
(0.0013844918998 0.000277310542616 0)
(0.00142772177652 0.000261275972251 0)
(0.00146898884014 0.000243969524078 0)
(0.00150779834526 0.000227042804545 0)
(0.00154371162702 0.000210958481604 0)
(0.00157651810079 0.000195123108275 0)
(0.0016061964387 0.000178829745571 0)
(0.00163275587801 0.000161630572346 0)
(0.00165608489964 0.00014324982423 0)
(0.0016759916757 0.000123484461214 0)
(0.00169227296995 0.000102210212862 0)
(0.0017046536947 7.93637245508e-05 0)
(0.00171274793502 5.48294237469e-05 0)
(0.00171623085493 2.85556587727e-05 0)
(0.00171497906399 9.27230712024e-07 0)
(0.00170855930687 -2.779199445e-05 0)
(0.00169479584304 -5.91852181644e-05 0)
(0.00166923773779 -9.69233196811e-05 0)
(0.00162689588495 -0.000145383854248 0)
(0.00156444608536 -0.000208894624373 0)
(0.00148252403707 -0.00029083203715 0)
(0.00138579895546 -0.000390575727181 0)
(0.00128330563779 -0.000500737188777 0)
(0.00119812144632 -0.000614086261735 0)
(0.00112978399895 -0.000731473496383 0)
(0.0010244704209 -0.000756016849225 0)
(0.000845008479644 -0.000638567291773 0)
(0.000781460125197 -0.000593083804643 0)
(0.000698066754146 -0.000568660377537 0)
(0.00060051021793 -0.000563334712475 0)
(0.000520578020295 -0.000604300732438 0)
(0.00043915952347 -0.000623349124579 0)
(0.000349115478806 -0.000570335176717 0)
(0.000281433234546 -0.000542524517887 0)
(0.00020621156756 -0.000521207119133 0)
(0.000140717981584 -0.000494130262763 0)
(9.46921975965e-05 -0.000423348486455 0)
(6.06057617863e-05 -0.000350237282333 0)
(2.50764032024e-05 -0.000298504428385 0)
(8.61424025305e-06 -0.00032711027976 0)
(3.02047183533e-06 -0.000326745483084 0)
(6.18762589748e-06 0.000132615724292 0)
(2.66935722051e-05 0.000171443255703 0)
(4.46306728229e-05 0.000185943464995 0)
(2.91663360296e-05 0.000127571789463 0)
(3.48101449203e-05 0.00012716361534 0)
(8.15384867608e-05 0.000190329176786 0)
(0.000100795084176 0.000198980656692 0)
(0.000117987834976 0.000201870022105 0)
(0.000131240445024 0.000200651347402 0)
(0.000153999971952 0.000200100066792 0)
(0.000137730305131 0.000145755251767 0)
(0.000159120805114 0.000140006411356 0)
(0.000187818007186 0.000153035222114 0)
(0.000219361972606 0.000178956320367 0)
(0.000279337955254 0.000227769072799 0)
(0.000323165927816 0.000251179426569 0)
(0.000341303650133 0.000247038987219 0)
(0.000375749479633 0.000258332225999 0)
(0.00042383421659 0.000283500475512 0)
(0.000465356670215 0.000299815507417 0)
(0.000502671668533 0.00030652275401 0)
(0.00054092159365 0.000309553554268 0)
(0.000581999654662 0.000311539987351 0)
(0.000622053682521 0.000309794738741 0)
(0.000663696719223 0.000305895523896 0)
(0.000695829946679 0.000305153507545 0)
(0.000746758276038 0.000310533725317 0)
(0.000781700345772 0.000308707518683 0)
(0.000812468188172 0.000304316444388 0)
(0.000859911277718 0.000308092242423 0)
(0.000925594292021 0.00032091587167 0)
(0.000962282237669 0.000325519304487 0)
(0.00101234769248 0.000343876442521 0)
(0.00108832347441 0.000367912146109 0)
(0.00114229489959 0.000373521921681 0)
(0.00119211410463 0.000367759032921 0)
(0.00124075305437 0.000358895939924 0)
(0.0012887038824 0.000348665276331 0)
(0.00133608109657 0.000336515266691 0)
(0.0013823186592 0.000321729745916 0)
(0.00142681105097 0.00030425726529 0)
(0.00146920461422 0.000285066754906 0)
(0.00150908527823 0.000265454434695 0)
(0.00154598144561 0.000246062625257 0)
(0.00157961309398 0.000226748908106 -6.72141181075e-29)
(0.00160988890282 0.000207047270645 6.69490477197e-29)
(0.00163671155537 0.000186489849781 0)
(0.00165988045875 0.000164698393073 0)
(0.00167918521486 0.000141402442736 0)
(0.00169448165732 0.00011641395662 0)
(0.00170559318442 8.95560112722e-05 0)
(0.00171222805531 6.0636093021e-05 0)
(0.00171399312608 2.94996792003e-05 0)
(0.00171014902305 -4.13155972818e-06 0)
(0.00169885513711 -4.14766094756e-05 0)
(0.00167642845908 -8.54965925242e-05 0)
(0.00163808178242 -0.000140007523411 0)
(0.00158114179241 -0.000207595952295 0)
(0.00150802617037 -0.000289167218535 0)
(0.00142349128862 -0.000384181364176 0)
(0.00133187682117 -0.000485703334958 0)
(0.00124366927262 -0.000587270121882 0)
(0.00116918419004 -0.000692586459717 0)
(0.00109302667866 -0.000802576170596 0)
(0.001075461858 -0.000911265327996 0)
(0.000843840267799 -0.000769549794024 0)
(0.000700306026791 -0.000680215915218 0)
(0.000619400662027 -0.000659921582455 0)
(0.000521829694462 -0.000653552025986 0)
(0.000443114646377 -0.000680225547637 0)
(0.00037097318555 -0.000680996334637 0)
(0.000296075293723 -0.000646186471562 0)
(0.000221276200759 -0.00062536013109 0)
(0.000145587624045 -0.000593607467721 0)
(9.0119291827e-05 -0.000543373961625 0)
(5.07682030841e-05 -0.000454559840164 0)
(1.93796319887e-05 -0.0003897915113 0)
(-1.10522567286e-05 -0.00033145542475 0)
(-2.15051191786e-05 -0.00032822728921 0)
(-8.82972578299e-06 -0.000329493962669 0)
(7.84107035095e-06 0.000150929717185 0)
(2.69010766866e-05 0.000188527873775 0)
(3.23458893054e-05 0.000190061460743 0)
(2.39788468389e-05 0.000137299306316 0)
(4.32676214706e-05 0.00015887766165 0)
(7.47753359684e-05 0.000208020069172 0)
(8.33782671317e-05 0.000214047214602 0)
(0.000102296273868 0.000217567417728 0)
(0.000104194669701 0.000202731853652 0)
(0.000131909184114 0.000224437597401 0)
(0.000116860081849 0.000162596027856 0)
(0.000143767843099 0.000165360294181 0)
(0.000169035634639 0.000183442817413 0)
(0.000212671570405 0.000228256893909 0)
(0.000262340499902 0.000272200357447 0)
(0.000295023916694 0.000283811873754 0)
(0.000312238292729 0.00027907489094 0)
(0.000353078096177 0.000300276841813 0)
(0.000398138819568 0.00032562230127 0)
(0.000438096929102 0.000339394663033 0)
(0.000477185765227 0.000345629583266 0)
(0.000514597175515 0.000348057518729 0)
(0.000554990074273 0.000350653810561 0)
(0.000590704714627 0.000348120983088 0)
(0.000625960548852 0.000341259283501 0)
(0.00067675300029 0.000347029632836 0)
(0.000698668703367 0.000344732719834 0)
(0.000766980696167 0.000354933757532 0)
(0.000789659857776 0.000350473849437 0)
(0.000858731811289 0.000364564216758 0)
(0.000885472933544 0.00036283509547 0)
(0.00096045371421 0.000384392117935 0)
(0.00102058793267 0.000408669362814 -7.87878190218e-29)
(0.0010780525015 0.000424959648736 7.80532362751e-29)
(0.00113112691915 0.00042579941232 0)
(0.0011823606003 0.000418646552175 0)
(0.00123303064557 0.000408730837246 0)
(0.00128288150123 0.000397307387631 0)
(0.00133192546877 0.000383900241274 0)
(0.00137978713331 0.000367713233913 0)
(0.00142586122231 0.000348582515282 0)
(0.00146968425474 0.000327269146949 0)
(0.00151083490517 0.000304879137293 0)
(0.00154887370644 0.000282136860779 0)
(0.00158347151517 0.000259174322234 0)
(0.00161438823294 0.00023571853284 0)
(0.0016413703688 0.0002113372379 0)
(0.0016641366304 0.000185632061359 0)
(0.0016824884151 0.000158342765133 0)
(0.0016963644063 0.000129278012249 0)
(0.0017057105627 9.81614143255e-05 0)
(0.00171031246869 6.45280826468e-05 0)
(0.0017095597817 2.76036866192e-05 0)
(0.00170181795195 -1.41265804222e-05 0)
(0.00168370234883 -6.34164643891e-05 0)
(0.00165034657634 -0.000123570103752 0)
(0.00159833260367 -0.000195880333464 0)
(0.00153137957147 -0.00027817158142 0)
(0.00145847098389 -0.000370638113854 0)
(0.00137747763215 -0.000476370025135 0)
(0.00128408518143 -0.000578900014019 0)
(0.00119357887801 -0.000666830844911 0)
(0.00112343409332 -0.000756582013413 0)
(0.00107188023583 -0.000855475468943 0)
(0.00105089832732 -0.000970385981078 0)
(0.000975899039567 -0.0010003925966 0)
(0.000677931855382 -0.000796473314091 0)
(0.00053835652831 -0.000759532047002 0)
(0.000456744761105 -0.000752873151769 0)
(0.000383735397847 -0.000751580268081 0)
(0.000314521454544 -0.000743392741867 0)
(0.000238346462829 -0.0007336456117 0)
(0.00015373735904 -0.000708533840367 0)
(8.35953988239e-05 -0.000656248194144 0)
(3.42737812662e-05 -0.00058192433667 0)
(-6.41996812242e-06 -0.00049584358397 0)
(-4.15931167652e-05 -0.000422300892814 0)
(-6.2300532025e-05 -0.000357759489955 0)
(-5.67957339131e-05 -0.000317779541162 0)
(-2.30325473167e-05 -0.000298980736727 0)
(8.40318166513e-06 0.000171037811295 0)
(2.66761330665e-05 0.000198528970524 0)
(2.49107927387e-05 0.000187014583486 0)
(2.01178353008e-05 0.000145512861071 0)
(4.62597768766e-05 0.000199506364803 0)