/*--------------------------------*- C++ -*----------------------------------*\
| =========                 |                                                 |
| \\      /  F ield         | OpenFOAM: The Open Source CFD Toolbox           |
|  \\    /   O peration     | Version:  v1806                                 |
|   \\  /    A nd           | Web:      www.OpenFOAM.com                      |
|    \\/     M anipulation  |                                                 |
\*---------------------------------------------------------------------------*/
FoamFile
{
    version     2.0;
    format      ascii;
    class       volScalarField;
    location    "640";
    object      pa;
}
// * * * * * * * * * * * * * * * * * * * * * * * * * * * * * * * * * * * * * //

dimensions      [0 2 -2 0 0 0 0];


internalField   nonuniform List<scalar> 
6400
(
-0.120812650995
-0.120813709947
-0.120816688628
-0.120822515782
-0.120831207863
-0.12084279568
-0.120857350593
-0.120875400764
-0.120897469446
-0.120924276493
-0.120958283566
-0.121001006211
-0.12105176113
-0.121110900061
-0.121179663032
-0.121259651156
-0.121352167279
-0.121457755184
-0.121576117635
-0.121705438007
-0.121843661383
-0.121991976623
-0.122154505312
-0.1223357818
-0.122539104717
-0.122765256175
-0.12301321894
-0.123282385561
-0.123573392261
-0.123887524238
-0.124226004282
-0.12458859799
-0.124972337705
-0.125374029407
-0.125792560831
-0.126226518811
-0.126676572699
-0.127147616983
-0.127639065355
-0.128144290693
-0.12866430815
-0.129209638125
-0.129786103256
-0.130387602848
-0.131005272609
-0.131632777364
-0.132265134734
-0.132898411411
-0.133528885101
-0.134153239418
-0.134768698443
-0.135369844474
-0.135947261563
-0.136488678974
-0.136991236177
-0.137459363405
-0.137887370641
-0.138261861925
-0.138576572013
-0.138837890163
-0.13905096488
-0.139217435707
-0.139334220232
-0.139427696643
-0.139538195121
-0.1397050499
-0.139920823737
-0.140137615148
-0.140319334795
-0.140463378708
-0.140579342193
-0.140677931112
-0.140765975707
-0.140841564232
-0.140906887812
-0.140962071686
-0.14100666859
-0.141035320694
-0.141053357615
-0.141060953393
-0.120811206037
-0.120812336041
-0.1208150309
-0.120820703513
-0.120829882349
-0.120841933071
-0.120856563404
-0.120873890186
-0.120895131514
-0.12092173969
-0.12095544352
-0.120997550168
-0.121048141322
-0.12110733077
-0.121175793113
-0.121254812933
-0.121346643074
-0.121452119341
-0.121570624047
-0.121699799043
-0.121836716611
-0.121983650331
-0.122145515854
-0.122326337663
-0.122529382521
-0.122755417084
-0.123003007876
-0.123271930907
-0.123562889298
-0.123876854475
-0.124214762377
-0.124577022809
-0.124960823142
-0.125362005649
-0.125780171591
-0.126213945308
-0.126663552556
-0.127134694848
-0.127626828485
-0.128132508744
-0.128651629837
-0.129196904359
-0.129775824274
-0.130379269931
-0.130997899449
-0.131626550832
-0.132260166331
-0.13289503497
-0.133527026464
-0.134151514622
-0.134765585959
-0.135367455543
-0.135949990095
-0.136493988631
-0.136998438355
-0.137469962337
-0.137896400577
-0.138267563343
-0.138582603739
-0.138843768176
-0.139053622823
-0.139220528713
-0.139341347418
-0.139439394077
-0.139553959838
-0.13972154718
-0.139940191531
-0.140156287096
-0.140336022236
-0.140478968207
-0.140594109774
-0.140692449113
-0.140780908093
-0.140857252457
-0.140921257686
-0.140974064517
-0.141014908892
-0.141042255091
-0.141059571021
-0.141065314503
-0.120807092407
-0.12080890335
-0.120811297052
-0.12081644536
-0.120825214112
-0.120838458946
-0.120854034709
-0.120870569328
-0.120890509476
-0.120916206537
-0.120949203116
-0.120990583753
-0.121040645563
-0.121099409913
-0.121167100307
-0.121243803959
-0.121333492402
-0.12143990285
-0.121558778014
-0.121686606732
-0.121821029932
-0.121964681438
-0.122125058055
-0.122306021292
-0.122508413351
-0.122733158278
-0.122980145358
-0.123248781028
-0.123539310058
-0.123852679825
-0.124189732164
-0.124551282852
-0.124935184484
-0.125334904303
-0.125751034892
-0.126185196309
-0.126634230316
-0.127104020871
-0.127596538079
-0.128104270129
-0.128627813045
-0.129176245782
-0.129754544183
-0.130357393017
-0.130976852076
-0.131607016576
-0.132243004966
-0.132880595962
-0.133515602577
-0.134143904455
-0.134762012032
-0.135365537605
-0.135945987449
-0.136493591138
-0.137006493822
-0.137480459555
-0.137905119939
-0.138275199978
-0.13859004493
-0.138851331458
-0.139063077497
-0.13922954208
-0.139354830189
-0.139464003481
-0.139593232459
-0.139769171898
-0.139979732309
-0.140188050663
-0.140367634295
-0.140511742075
-0.140627979448
-0.140726309556
-0.140811090054
-0.140882705925
-0.140943870939
-0.140993736628
-0.141030614229
-0.141055484985
-0.141070881023
-0.141076356569
-0.12080123674
-0.120803052319
-0.120805026477
-0.12080967394
-0.120817222912
-0.120830074532
-0.120849204554
-0.120865528087
-0.120883692116
-0.120907903291
-0.12093978752
-0.120980294633
-0.121029659102
-0.121087295184
-0.121153511704
-0.121230377204
-0.121320158097
-0.1214240007
-0.121538249609
-0.121660035668
-0.121791378764
-0.12193542176
-0.122095532776
-0.122275207218
-0.122476452606
-0.122700131571
-0.122946216676
-0.123214126201
-0.123503940919
-0.123816340382
-0.124152562102
-0.124513107915
-0.124895958657
-0.125295929791
-0.125708858395
-0.126139564586
-0.126590110393
-0.127059447267
-0.127549852966
-0.128059883317
-0.128589086484
-0.12914204621
-0.12972195746
-0.130325616083
-0.130946724306
-0.131579441962
-0.132218738573
-0.132860147395
-0.133499393831
-0.134132299824
-0.134754707403
-0.135361412511
-0.135945085657
-0.136498303969
-0.137016156875
-0.137491863139
-0.137916962765
-0.138287083606
-0.138601969744
-0.138863815537
-0.139077009719
-0.139247716299
-0.139387019382
-0.13951663205
-0.139657790239
-0.139829035614
-0.140036361154
-0.140243124375
-0.140422395586
-0.140566446089
-0.140679922124
-0.140771530694
-0.140849142771
-0.140919105048
-0.140979780413
-0.141025367665
-0.141056427092
-0.141079549872
-0.141095395036
-0.14110187611
-0.120792078884
-0.120792420283
-0.120794762168
-0.120799350759
-0.120807422234
-0.120818862856
-0.120835876012
-0.120853517032
-0.120872344217
-0.120896091972
-0.120926768777
-0.120966271211
-0.121014737392
-0.121072653527
-0.121139801759
-0.121215083381
-0.121300574583
-0.121397567014
-0.121505604831
-0.121624346021
-0.121754345692
-0.121897151714
-0.122056027752
-0.122234327253
-0.122433995787
-0.122656146877
-0.122900750362
-0.123167517618
-0.123456322091
-0.12376768172
-0.124102418363
-0.124462323984
-0.124845380148
-0.125241499692
-0.125651641293
-0.126079718091
-0.126527385408
-0.12699708274
-0.127489077779
-0.128002251684
-0.128536479402
-0.129094163038
-0.12967704036
-0.130282910214
-0.130906754154
-0.131543070213
-0.132186742794
-0.132833117005
-0.133477803517
-0.134116469413
-0.134744518672
-0.135356438094
-0.135945513429
-0.136504831343
-0.137027704341
-0.137506166155
-0.137932746092
-0.138303939686
-0.138620125107
-0.138884500087
-0.139102989427
-0.139284547745
-0.139443302118
-0.139593087878
-0.139742299427
-0.139914152542
-0.140117580421
-0.140321184117
-0.140498795594
-0.140639803141
-0.140745966973
-0.140829380195
-0.140905544235
-0.140977105411
-0.141033889055
-0.14107338963
-0.14110148736
-0.141126342305
-0.141141000734
-0.141145692844
-0.120775536838
-0.120775442827
-0.12077918854
-0.120783707578
-0.120792132185
-0.120803589327
-0.120819222062
-0.120836581382
-0.120856302121
-0.120880004114
-0.12090911817
-0.120947394401
-0.120996910649
-0.121055700048
-0.121120568781
-0.121191905882
-0.121272001415
-0.121363426508
-0.121466969796
-0.121582233893
-0.121709050668
-0.121849514968
-0.122006639559
-0.122183243836
-0.122381039423
-0.122600845799
-0.12284355078
-0.123108660813
-0.123396216914
-0.123706312211
-0.124039883788
-0.124397730893
-0.124777380659
-0.12517340299
-0.125579009507
-0.126002138222
-0.126448568103
-0.126919341508
-0.127413659227
-0.127930464142
-0.128469618529
-0.129032342328
-0.129619368
-0.130228879942
-0.130856718902
-0.131497785766
-0.132146979032
-0.132799520877
-0.133450909669
-0.134096659928
-0.134731910815
-0.135350992848
-0.135947304513
-0.136513616219
-0.137042093807
-0.137524436368
-0.137954092122
-0.138328507337
-0.138648992219
-0.138920033807
-0.1391490939
-0.139346710264
-0.139527810356
-0.139692673967
-0.139850696477
-0.140029568765
-0.140234375045
-0.140432596841
-0.14060275013
-0.140733760018
-0.140829576105
-0.140910200637
-0.140989754823
-0.141058305651
-0.141108335328
-0.1411425406
-0.141170643131
-0.141193497323
-0.141204826977
-0.141209270165
-0.120750613159
-0.120752305085
-0.120758285978
-0.12076471658
-0.120771213375
-0.12078239465
-0.1207982165
-0.120815464865
-0.120835440942
-0.120858979019
-0.120888333528
-0.120925457675
-0.120974905451
-0.121031212396
-0.121092409918
-0.121159100102
-0.121234793643
-0.121322476926
-0.121422154355
-0.121532466744
-0.121655196352
-0.121792933375
-0.121947589997
-0.122121600395
-0.122316906742
-0.122534841718
-0.122774009764
-0.123036887674
-0.123323036388
-0.123632768314
-0.123964185613
-0.124318290657
-0.12469473648
-0.125084717926
-0.125487443818
-0.125908288889
-0.1263542431
-0.126826310394
-0.127323237425
-0.127843890547
-0.128388045222
-0.12895622169
-0.129548451027
-0.130162988184
-0.130796184577
-0.131443288916
-0.132099278025
-0.132759322541
-0.133418841904
-0.134073229466
-0.134717433302
-0.135345588605
-0.135950839671
-0.136525394914
-0.137060782022
-0.137548927558
-0.137984345808
-0.13836560194
-0.138695003837
-0.138977896279
-0.139222665698
-0.139440423757
-0.139640004346
-0.13982069377
-0.139998419328
-0.140186728125
-0.140391103474
-0.140578474952
-0.140733010583
-0.1408499104
-0.140939947326
-0.141023938799
-0.141102876013
-0.141163860882
-0.141206587087
-0.14123683112
-0.14126340305
-0.141279912829
-0.141285180644
-0.14128810695
-0.120721536283
-0.120724906566
-0.120731491888
-0.120740330045
-0.120746755576
-0.120758205595
-0.120772799001
-0.120789952727
-0.120810282035
-0.12083163569
-0.120861929764
-0.120900303726
-0.120946806863
-0.120999400544
-0.121056264896
-0.12111816821
-0.121190571658
-0.121275022119
-0.121369586884
-0.121474615842
-0.121592897848
-0.121727046833
-0.121878523272
-0.122049909386
-0.122242536608
-0.122457001294
-0.122693906077
-0.122951137856
-0.123236500013
-0.123546323267
-0.123874833134
-0.124221739103
-0.124592856444
-0.124978104627
-0.125376976147
-0.125797689309
-0.12624422134
-0.126717618881
-0.127217154446
-0.12774180115
-0.12829116765
-0.128865302867
-0.129463743939
-0.130084656255
-0.130724644556
-0.131379212397
-0.132043447871
-0.132712531873
-0.133381841752
-0.134046668964
-0.134701781829
-0.135341031309
-0.135957135632
-0.136541766745
-0.13708627909
-0.13758328927
-0.138028524527
-0.138421356631
-0.138764303625
-0.139062672747
-0.139325107472
-0.139561924723
-0.139780807269
-0.139987657658
-0.140185958622
-0.140388454421
-0.140586911884
-0.1407598429
-0.140896462958
-0.141000668168
-0.141088100095
-0.1411726124
-0.141244335759
-0.141296417427
-0.141331716662
-0.141357378658
-0.141374834741
-0.14138118014
-0.141377216923
-0.141374733289
-0.120689965266
-0.120694212424
-0.120700492314
-0.120707145549
-0.12071520225
-0.120728763075
-0.12074244355
-0.120758971292
-0.1207803557
-0.120801735987
-0.120828425127
-0.120867062544
-0.120911847969
-0.120959985777
-0.121012646695
-0.121071746927
-0.121139960695
-0.121219499101
-0.121308741351
-0.121408856986
-0.121522412956
-0.121651861304
-0.121798601689
-0.12196594627
-0.122157407525
-0.122366852783
-0.122600421034
-0.122856560205
-0.123136279378
-0.123441700377
-0.123767865893
-0.124113445635
-0.12447289867
-0.124851212226
-0.125249076817
-0.125670242394
-0.126117619097
-0.126592443272
-0.127094595043
-0.127623360202
-0.128178244691
-0.128758931683
-0.129364583895
-0.129993215415
-0.130641509654
-0.131305127106
-0.131979280474
-0.132659207474
-0.133340265086
-0.134017647325
-0.13468592399
-0.135338624263
-0.135968001279
-0.1365653915
-0.137122399478
-0.137632623431
-0.138092725355
-0.138501638994
-0.138860737744
-0.139175571649
-0.139456373171
-0.139714201531
-0.139957053814
-0.140190050401
-0.140412206644
-0.140633198229
-0.14083741953
-0.140988932722
-0.141104730902
-0.141195255496
-0.141276102272
-0.141353588998
-0.14141564295
-0.141459199658
-0.141486634249
-0.141501986975
-0.141502790793
-0.141492752577
-0.141476648143
-0.141466089842
-0.120655596369
-0.120660284318
-0.120667181463
-0.120672678246
-0.120681013255
-0.120693751764
-0.120706797935
-0.120721983008
-0.120741391636
-0.120766192955
-0.120791298898
-0.120827104259
-0.120869360169
-0.120913724638
-0.120961572052
-0.121018046127
-0.121083143243
-0.121156731963
-0.121239698462
-0.121334509449
-0.121443425913
-0.121568144482
-0.121709629047
-0.12187013723
-0.122058574192
-0.122266773819
-0.122490735884
-0.122744437168
-0.123019708245
-0.123322038067
-0.12364387139
-0.123982920881
-0.124336815713
-0.124708158176
-0.125103728539
-0.125525129066
-0.125973445752
-0.126449807798
-0.126954613561
-0.127487601177
-0.128048342083
-0.128636250391
-0.129250152406
-0.129887873504
-0.130546085879
-0.13122053653
-0.131906552729
-0.132599454702
-0.133294594384
-0.13398705803
-0.134671228429
-0.13534031094
-0.135986210701
-0.136600177376
-0.137174367755
-0.13770329848
-0.138183619678
-0.138610970424
-0.138985403719
-0.13931704024
-0.139621095555
-0.139906621314
-0.140176260184
-0.140433633986
-0.140679897016
-0.140913941582
-0.141120141657
-0.141280185932
-0.141370563604
-0.141438854374
-0.141499438732
-0.141564636152
-0.141619435953
-0.141657101371
-0.141675701198
-0.141673277896
-0.141650191794
-0.141615930929
-0.141583115444
-0.141562546186
-0.120617139527
-0.12062136875
-0.120628299656
-0.120634431412
-0.120644602458
-0.12065442799
-0.120666160072
-0.120680250701
-0.120694949831
-0.120719912164
-0.120746091669
-0.120779231401
-0.120818515307
-0.120860349044
-0.120904566734
-0.120956571309
-0.121017591971
-0.121085665464
-0.121162363498
-0.121250824167
-0.121354198341
-0.121474472505
-0.12161278825
-0.12176607135
-0.121944158376
-0.122151982275
-0.122372417014
-0.122618032358
-0.122887660066
-0.123178374306
-0.123497811166
-0.123832297913
-0.124180308971
-0.124547308801
-0.124940655561
-0.125361638647
-0.125810648027
-0.126288593013
-0.126796129825
-0.127333432863
-0.127900347459
-0.128496177343
-0.129119423206
-0.12976767251
-0.130437538437
-0.131124832536
-0.131824992394
-0.132533414973
-0.133245437247
-0.133956061675
-0.134659512407
-0.135348797824
-0.136015640464
-0.136651439784
-0.13724891433
-0.137802737026
-0.138307982454
-0.138752376098
-0.1391385997
-0.139490836714
-0.139832131425
-0.140157929114
-0.140453815651
-0.140730717663
-0.140992677184
-0.141233521906
-0.141441659766
-0.14161623827
-0.141698951088
-0.141737653953
-0.141749291256
-0.141803684733
-0.141860148008
-0.141897847892
-0.141907015626
-0.141880932961
-0.141824270347
-0.141753384292
-0.141693578767
-0.141657508419
-0.120573693122
-0.120576660041
-0.120581114538
-0.120589062403
-0.120601091796
-0.120609454039
-0.120619985529
-0.12063374978
-0.120645551758
-0.120666265792
-0.120692283163
-0.120723109715
-0.12075884911
-0.120798213786
-0.12084123583
-0.120888698447
-0.120944018953
-0.121006085811
-0.121076573111
-0.121158070662
-0.121253820214
-0.121367161733
-0.12150369694
-0.12165548319
-0.121821507227
-0.122020369293
-0.122238378433
-0.122472963117
-0.12273988995
-0.123025420219
-0.123332219432
-0.123657936245
-0.124001096956
-0.124366748871
-0.124758507897
-0.125178601595
-0.125627952917
-0.126107453128
-0.126617867366
-0.127159625219
-0.127732969245
-0.128337386497
-0.128971125445
-0.12963143549
-0.130314838348
-0.131017245368
-0.131734219516
-0.132461199337
-0.133193485533
-0.133926029339
-0.134653053943
-0.135367568253
-0.136061407475
-0.136726162065
-0.137354267057
-0.137938417411
-0.138473862067
-0.138932091498
-0.139323568463
-0.139703257582
-0.140112754624
-0.140499956507
-0.140812157567
-0.141099590206
-0.141374755974
-0.141625372633
-0.14183219529
-0.141985458827
-0.142077205096
-0.142080788741
-0.14199734576
-0.142065747743
-0.142150220966
-0.142200250455
-0.14220161472
-0.142143973872
-0.142036104168
-0.141900778409
-0.141794627436
-0.141729415025
-0.12052544054
-0.120527228314
-0.120528480477
-0.120536907137
-0.120547556309
-0.12055651167
-0.12056653057
-0.120579611122
-0.120591050741
-0.120608166025
-0.120631497394
-0.120659135491
-0.120690746955
-0.120725651843
-0.120767003497
-0.120811804959
-0.120861776777
-0.120917658074
-0.120981809056
-0.121056349806
-0.121143611347
-0.121247015907
-0.121376188467
-0.121529667147
-0.121689908702
-0.121873499395
-0.122087835434
-0.122314905877
-0.122567348324
-0.122847117803
-0.123146840643
-0.123465171484
-0.123802194989
-0.124165091677
-0.124555290343
-0.124974425636
-0.125423842264
-0.125904693285
-0.12641811697
-0.126964693739
-0.127544817483
-0.12815837138
-0.128803684825
-0.129477679229
-0.130176685614
-0.130896761982
-0.131633652964
-0.132382790794
-0.133139370604
-0.133898399798
-0.134654386101
-0.135400822977
-0.136130023652
-0.136833198007
-0.137499479361
-0.138114540244
-0.138697885441
-0.139170971547
-0.139545138678
-0.139952720335
-0.140513629731
-0.141085618394
-0.141365482255
-0.141645072797
-0.141943889362
-0.142222664382
-0.142436715356
-0.142529197444
-0.142575906041
-0.142627966432
-0.14217049436
-0.14231086581
-0.14246739192
-0.142557053146
-0.14256698048
-0.142473988945
-0.142288999728
-0.14204044623
-0.141864934717
-0.141744150933
-0.120473112501
-0.120474873991
-0.12047694773
-0.120481285668
-0.120488534504
-0.120497138138
-0.120506558096
-0.120517672721
-0.120529976996
-0.120544008056
-0.120563912711
-0.120587804018
-0.120615114648
-0.120645015859
-0.120680917409
-0.120722903068
-0.120768924586
-0.120819398208
-0.120877189567
-0.120944666987
-0.121023702884
-0.121116675207
-0.121234222077
-0.121383801755
-0.121543851606
-0.121713931804
-0.121918558766
-0.122141606983
-0.122379286286
-0.12264639896
-0.122936007662
-0.123246772428
-0.12358102612
-0.123941269652
-0.124329358131
-0.124747195644
-0.125196565272
-0.125678666895
-0.126194902184
-0.126746525013
-0.127334058097
-0.127957463525
-0.12861534384
-0.129304585704
-0.130021390458
-0.130761998875
-0.131522393353
-0.132297882617
-0.133083425836
-0.133874265824
-0.134665869369
-0.135453143682
-0.136229456644
-0.136984168032
-0.13769457795
-0.138326033357
-0.139037450924
-0.139578777616
-0.139802614423
-0.140155623709
-0.14102965742
-0.141044009398
-0.141032410928
-0.141116840731
-0.141248728852
-0.141398942491
-0.141546411763
-0.141642169178
-0.141567843383
-0.141348112407
-0.14159597179
-0.142684109062
-0.143225652624
-0.143376007464
-0.143342977469
-0.143140944763
-0.142781760905
-0.142154374286
-0.141869778002
-0.141635367816
-0.120415988827
-0.120417837496
-0.120421665303
-0.120421789629
-0.120425688634
-0.12043278968
-0.12044103944
-0.120450612716
-0.120463864389
-0.120473852352
-0.120489692872
-0.120509548483
-0.120532564714
-0.120558010485
-0.120587931193
-0.12062481454
-0.120665986088
-0.120710994328
-0.120762259988
-0.120822231281
-0.120893019534
-0.120976419122
-0.121080180629
-0.121218857891
-0.121379377678
-0.121540844005
-0.121728088862
-0.121947819234
-0.122180170796
-0.122428563519
-0.122704802938
-0.123007163542
-0.123336371949
-0.123693166035
-0.12407871503
-0.124494923763
-0.124943802261
-0.125427119468
-0.125946290471
-0.126502916048
-0.127098263231
-0.127732435007
-0.128404044911
-0.129110051458
-0.12984682319
-0.130611064044
-0.131399038934
-0.132205679102
-0.133025333644
-0.133853699632
-0.134688670042
-0.135528511834
-0.136368839543
-0.137194322734
-0.137946486413
-0.138485936568
-0.13958541136
-0.139577761696
-0.13953440489
-0.139569310527
-0.139830410456
-0.140166541906
-0.14018935518
-0.140043011019
-0.139800151496
-0.139526473528
-0.139274965988
-0.139078467062
-0.138897294211
-0.138701326284
-0.138667683135
-0.139117243058
-0.139825753161
-0.140598650782
-0.141252000144
-0.141589321209
-0.14164067515
-0.141908371173
-0.141921142231
-0.141328310443
-0.120353362884
-0.120354644928
-0.120356968874
-0.120356208721
-0.120357882535
-0.120363380983
-0.120369611845
-0.120376441602
-0.120389213992
-0.120396698843
-0.120408591475
-0.120424413043
-0.120443321329
-0.120464680353
-0.120488757271
-0.120519133102
-0.120554137119
-0.12059292488
-0.120637104689
-0.120688987503
-0.120750775717
-0.120824585153
-0.120915659261
-0.121039319684
-0.121193638121
-0.121353354965
-0.121521613805
-0.121723637209
-0.121951172942
-0.122191547482
-0.122454127113
-0.122745737192
-0.123067671329
-0.123419535313
-0.123801661304
-0.124215479092
-0.124663390181
-0.12514745154
-0.125669570272
-0.126231414064
-0.126834801357
-0.127480505122
-0.128167216552
-0.128891630102
-0.129650349422
-0.130441258257
-0.13126149146
-0.132104866082
-0.132963707495
-0.133834443179
-0.134720899706
-0.135628289999
-0.136558595499
-0.13750336123
-0.138375779921
-0.138626901603
-0.138885334435
-0.139128765878
-0.139107220585
-0.138956957364
-0.138854700068
-0.138814676326
-0.138534681546
-0.138012730598
-0.137326004788
-0.136579402661
-0.135865986208
-0.135244616144
-0.134703321966
-0.134198067149
-0.133861212882
-0.134067778798
-0.134851309873
-0.136049854958
-0.137425424324
-0.138719358079
-0.139684023595
-0.140079364932
-0.140112536354
-0.140005631395
-0.120286320731
-0.120286966128
-0.120288290853
-0.120286069752
-0.120286308712
-0.120289692405
-0.120293323331
-0.120296111363
-0.120304917519
-0.120311430742
-0.120320093319
-0.120331949871
-0.120346920248
-0.120364815975
-0.12038239943
-0.120405727126
-0.120433734567
-0.120465559039
-0.120501869309
-0.120544954658
-0.120596878584
-0.120660027812
-0.120738679114
-0.120845694094
-0.120986519776
-0.121145437893
-0.12130211704
-0.121482782684
-0.121692713706
-0.121923790102
-0.122176230068
-0.122458695391
-0.122772422868
-0.123117965692
-0.123495766085
-0.12390667345
-0.124352830103
-0.12483712445
-0.125361804246
-0.12592893844
-0.126540675266
-0.127198415046
-0.127901454547
-0.128646188147
-0.129428957029
-0.130249669822
-0.131107296461
-0.131993197058
-0.132895317587
-0.133810628034
-0.134754341765
-0.135743059838
-0.136785901939
-0.137953495764
-0.138061649051
-0.13821894804
-0.138421049185
-0.138585347922
-0.138492906271
-0.138176407216
-0.13774432344
-0.137199415966
-0.136470957123
-0.135590406497
-0.134606677257
-0.133585480442
-0.132575937115
-0.131589192162
-0.130604573696
-0.129656238406
-0.128881772992
-0.12851325578
-0.128748815782
-0.129635890442
-0.131126859001
-0.133077856962
-0.135058900113
-0.136442968767
-0.137688309094
-0.140141447295
-0.120216148903
-0.120215922198
-0.120214771835
-0.120211828896
-0.120211656219
-0.120212735943
-0.120213772604
-0.120212948347
-0.12021703291
-0.120220109624
-0.120224676214
-0.12023187907
-0.120242042933
-0.12025624451
-0.120267390138
-0.120283446162
-0.120303963934
-0.120328481436
-0.120356268466
-0.120389857401
-0.120431068012
-0.120482419258
-0.120547926062
-0.120637779802
-0.120760593197
-0.12091097558
-0.121065467875
-0.121229185798
-0.121418181598
-0.121632030021
-0.121871584198
-0.122143255031
-0.122447235855
-0.122785102283
-0.123157645855
-0.123564873294
-0.124008981581
-0.124492925971
-0.125019840969
-0.125592014256
-0.12621206647
-0.126882479857
-0.127603228304
-0.12837051052
-0.129178640493
-0.130029424107
-0.130928937481
-0.131867106163
-0.132817928171
-0.133772252564
-0.134770483611
-0.135842460125
-0.137024587477
-0.137192968744
-0.137465363081
-0.137829714884
-0.138006237161
-0.137889427977
-0.137474363759
-0.136817446498
-0.135972221658
-0.134940462102
-0.133740708
-0.132430028005
-0.131048955199
-0.12963829309
-0.128226805817
-0.126820610514
-0.125419104835
-0.124088193551
-0.122995346328
-0.122275422204
-0.122086378856
-0.122572009478
-0.123849301803
-0.125957556083
-0.128447585093
-0.130385790924
-0.133199219618
-0.143525266805
-0.120144302377
-0.120143180476
-0.120139312932
-0.120135903624
-0.120134828676
-0.120133258296
-0.120131249184
-0.120127623043
-0.120126026817
-0.120123998352
-0.120123193324
-0.120124665178
-0.120128527548
-0.120136045863
-0.120141974007
-0.120151003117
-0.120163548721
-0.120179948525
-0.120199123191
-0.120222900056
-0.120252787344
-0.120291139545
-0.120342603219
-0.120414656203
-0.120516229972
-0.120649008322
-0.120798160837
-0.120950705152
-0.121121372952
-0.121317551065
-0.121540308819
-0.121797577082
-0.122090350949
-0.122418120907
-0.122783815225
-0.123186426196
-0.123627422955
-0.124110539899
-0.124639356408
-0.12521675872
-0.125845278453
-0.126528186769
-0.127266783866
-0.12805825806
-0.128897131201
-0.129785594858
-0.130730733396
-0.131717658341
-0.132719247287
-0.133699084494
-0.13473759383
-0.135885734596
-0.136025905464
-0.136328891834
-0.137016743971
-0.137367787134
-0.137271008299
-0.136755584685
-0.135895496772
-0.134773142532
-0.133437705887
-0.131908837845
-0.130224834291
-0.128433573138
-0.126567161672
-0.124652941308
-0.122708887601
-0.1207383259
-0.118744862143
-0.116788727783
-0.115028549829
-0.113639937968
-0.112704512374
-0.112342518601
-0.11273103524
-0.114099316026
-0.116203838366
-0.11755569099
-0.11755629106
-0.121537558035
-0.120071869547
-0.120070064794
-0.120064558143
-0.120060480121
-0.120057083132
-0.120052068094
-0.120045735885
-0.120039204876
-0.120031455963
-0.120023399395
-0.12001637952
-0.120011312141
-0.120008141065
-0.120006911685
-0.120006664049
-0.120008439635
-0.120012475639
-0.120019383447
-0.12002917645
-0.120042858865
-0.120061145424
-0.120085535375
-0.120121839276
-0.120175543988
-0.120254711004
-0.120364352249
-0.120496868228
-0.120639000771
-0.12079365063
-0.120972157333
-0.121179052721
-0.12141790608
-0.121695530433
-0.122011730718
-0.122369626652
-0.122767017705
-0.123204016396
-0.123685249924
-0.124215056764
-0.124797202871
-0.125434598117
-0.126130592386
-0.126888773171
-0.127708511011
-0.128584310913
-0.129513179017
-0.130503478196
-0.131550110454
-0.132631865974
-0.133585348613
-0.134631038527
-0.134784844632
-0.13503763125
-0.135906988304
-0.136579524289
-0.13657635264
-0.136029550092
-0.135021256005
-0.133646706862
-0.131987598145
-0.13009704839
-0.128007420521
-0.125754670744
-0.123367527722
-0.12086319117
-0.118254790702
-0.115550935117
-0.112754196041
-0.109871710761
-0.106951420865
-0.104121105344
-0.101550438211
-0.0992442293995
-0.0971503772615
-0.0953749236521
-0.0943032796598
-0.0937948348656
-0.0900272465051
-0.0748921480282
-0.0561148584949
-0.119998904648
-0.11999651086
-0.119989974316
-0.119984998569
-0.119978740361
-0.11996974232
-0.119958571674
-0.119948154368
-0.119933279529
-0.119918635295
-0.119904838239
-0.119892605963
-0.119881985642
-0.119872137622
-0.119863292388
-0.119856691951
-0.119851509609
-0.119847829451
-0.119846393476
-0.1198488649
-0.119854936098
-0.119864537109
-0.119884086015
-0.119918764127
-0.119975103649
-0.120059212554
-0.120170122747
-0.120298108087
-0.120442001381
-0.120599446014
-0.120786203562
-0.121006268292
-0.121265224013
-0.121562967914
-0.121907660348
-0.122299761124
-0.122733028452
-0.123212139847
-0.123741722731
-0.124327153607
-0.124973211011
-0.125683850185
-0.126464355424
-0.127314255327
-0.128223075963
-0.129188855198
-0.130231915879
-0.131372011428
-0.132640046437
-0.133417812273
-0.133635973415
-0.133821554877
-0.134683779349
-0.135613361691
-0.135840263364
-0.135301497413
-0.134186694424
-0.132597850553
-0.130635307458
-0.128370917222
-0.125854260921
-0.123118357538
-0.120191846811
-0.117092599788
-0.113831655688
-0.110418067621
-0.106859246127
-0.103159194122
-0.0993217733253
-0.0953653193833
-0.0913407454972
-0.0873103492265
-0.0832145364873
-0.0787475577253
-0.0738072591546
-0.0687342088204
-0.0628868950994
-0.0493704853309
-0.01234741515
0.0419604615401
-0.119924773736
-0.119921749504
-0.119914565073
-0.119908438356
-0.11989907103
-0.119885904559
-0.11987032309
-0.119854497332
-0.119831994183
-0.11981039631
-0.119789093954
-0.119768888673
-0.119750027283
-0.119730915722
-0.119712121203
-0.119695887621
-0.119680885847
-0.119665299024
-0.119650915081
-0.119640470533
-0.11963286174
-0.119626772169
-0.11962754522
-0.119642229968
-0.119675390874
-0.11973241547
-0.119817556089
-0.119923530532
-0.12005343589
-0.120195728094
-0.120359595636
-0.120554338063
-0.120792661284
-0.121074938252
-0.121400046633
-0.121778656319
-0.12220648397
-0.122682796948
-0.123212618553
-0.12380069145
-0.124453922246
-0.125180562815
-0.125986006935
-0.126864236467
-0.127798206806
-0.12879185234
-0.129898686598
-0.131220774247
-0.133498487826
-0.132793490374
-0.132881203302
-0.133494936563
-0.13455008499
-0.135008959379
-0.134607576163
-0.133429033648
-0.131663397836
-0.129423642286
-0.126808580276
-0.123883654421
-0.120696326735
-0.117281352354
-0.113668765254
-0.109880923136
-0.105935618584
-0.101845376252
-0.0976138236433
-0.0932308730063
-0.0886709176397
-0.0838926970496
-0.0788330595078
-0.073389676951
-0.0673877089379
-0.0604302572292
-0.0522460014213
-0.042944052621
-0.0307259260859
-0.0060143888962
0.0480352732885
0.116818860413
-0.119848424771
-0.119844739422
-0.119836841764
-0.11982918082
-0.119816162392
-0.119799197627
-0.119779244078
-0.119756770968
-0.119727226987
-0.119698924209
-0.119669455784
-0.119640414468
-0.119612361528
-0.119582961022
-0.119552933692
-0.119525452527
-0.119499730738
-0.11947070495
-0.119442180196
-0.119417132059
-0.119393287375
-0.119370960163
-0.119351544958
-0.119344142181
-0.119353662177
-0.119383065327
-0.119439325325
-0.119517586746
-0.119622677693
-0.119750322617
-0.11989646239
-0.120065531909
-0.120272643976
-0.120531989105
-0.120841788524
-0.121203216439
-0.121619877766
-0.122089921664
-0.122617571007
-0.123208410957
-0.12386987472
-0.124612819675
-0.125442092617
-0.126343924347
-0.127298019112
-0.12829970467
-0.129359239256
-0.130414716997
-0.131210357958
-0.131759407795
-0.131892288673
-0.133358971452
-0.13405632
-0.133876870384
-0.132762138921
-0.130877151593
-0.128410646729
-0.125482084686
-0.122189472313
-0.118600253255
-0.114767946292
-0.110735968219
-0.106542008875
-0.102214395456
-0.0977704438086
-0.0932106611985
-0.088512503611
-0.0836263412689
-0.0784767546043
-0.0729604992179
-0.0669210198945
-0.0601026067255