/*--------------------------------*- C++ -*----------------------------------*\
| =========                 |                                                 |
| \\      /  F ield         | OpenFOAM: The Open Source CFD Toolbox           |
|  \\    /   O peration     | Version:  v1806                                 |
|   \\  /    A nd           | Web:      www.OpenFOAM.com                      |
|    \\/     M anipulation  |                                                 |
\*---------------------------------------------------------------------------*/
FoamFile
{
    version     2.0;
    format      ascii;
    class       surfaceScalarField;
    location    "420";
    object      phia;
}
// * * * * * * * * * * * * * * * * * * * * * * * * * * * * * * * * * * * * * //

dimensions      [0 3 -1 0 0 0 0];
oriented        oriented;


internalField   nonuniform List<scalar> 
12640
(
1.23621709421e-07
-1.26182520562e-07
2.37788136672e-07
-1.16165409229e-07
3.39337413656e-07
-1.03035134397e-07
4.25487452205e-07
-8.73237907914e-08
4.88290212766e-07
-6.38877268965e-08
5.25910832792e-07
-3.87722825651e-08
5.51415547174e-07
-2.65755304058e-08
5.94720967632e-07
-4.42693327739e-08
6.57824052008e-07
-6.3965460951e-08
7.17916821247e-07
-6.08321226032e-08
7.73752888694e-07
-5.64153015126e-08
8.34290902527e-07
-6.10494287483e-08
8.90239868574e-07
-5.63987903339e-08
9.37413582975e-07
-4.75907881187e-08
9.81230370966e-07
-4.42046212898e-08
1.03249478719e-06
-5.16861723239e-08
1.0863397979e-06
-5.4238505591e-08
1.13267202217e-06
-4.67153356987e-08
1.16951566689e-06
-3.71271552068e-08
1.20344577487e-06
-3.41528576623e-08
1.2499638274e-06
-4.66918624903e-08
1.31120324286e-06
-6.14136136573e-08
1.37689551435e-06
-6.58389623236e-08
1.44158894993e-06
-6.48482191352e-08
1.50253100771e-06
-6.10741645099e-08
1.55951163811e-06
-5.71267369569e-08
1.61529770047e-06
-5.59127376677e-08
1.66856653441e-06
-5.34151630291e-08
1.71773380354e-06
-4.92898480375e-08
1.76378623839e-06
-4.61929990154e-08
1.81033141406e-06
-4.66577078092e-08
1.85602704506e-06
-4.58296994486e-08
1.89832000575e-06
-4.24267137459e-08
1.94266777696e-06
-4.44877600834e-08
1.9884970258e-06
-4.59232564807e-08
2.03480471397e-06
-4.64269088204e-08
2.08464222461e-06
-4.99173978635e-08
2.13410881214e-06
-4.95246783547e-08
2.1806502306e-06
-4.65640116933e-08
2.22815113781e-06
-4.75445122711e-08
2.28611145833e-06
-5.79896852729e-08
2.34402416064e-06
-5.79629644737e-08
2.3845375251e-06
-4.05457776571e-08
2.41391912192e-06
-2.94101716933e-08
2.43898453181e-06
-2.50612179411e-08
2.45891342385e-06
-1.99260008785e-08
2.47347244497e-06
-1.45198180336e-08
2.48066699377e-06
-7.15250568041e-09
2.48129084278e-06
-5.46564059486e-10
2.48479711367e-06
-3.43746051571e-09
2.50209219595e-06
-1.71683556381e-08
2.51808451206e-06
-1.58843910169e-08
2.49663962588e-06
2.15603161172e-08
2.45284829737e-06
4.39101316263e-08
2.38892337023e-06
6.4066523209e-08
2.28901982743e-06
1.0003813351e-07
2.19770263351e-06
9.15557743745e-08
2.13592363381e-06
6.21064694538e-08
2.05959327111e-06
7.67404378389e-08
1.96989305604e-06
9.0251265402e-08
1.91860525271e-06
5.20080880146e-08
1.84530756023e-06
7.39794117113e-08
1.63173719504e-06
2.14092966923e-07
1.40331214489e-06
2.28602810347e-07
1.24374253345e-06
1.59695033165e-07
1.13870573802e-06
1.05107095041e-07
1.04556404447e-06
9.3248568001e-08
9.53471488694e-07
9.22256238813e-08
8.58019209984e-07
9.56149661278e-08
7.5546833828e-07
1.02712298748e-07
6.51336249536e-07
1.04307157913e-07
5.52355460901e-07
9.91649785674e-08
4.60322251213e-07
9.21872199691e-08
3.66274828508e-07
9.41851539263e-08
2.8637907716e-07
8.00017487625e-08
2.17716384185e-07
6.88013258461e-08
1.69240333219e-07
4.86614707454e-08
1.1673677353e-07
5.26724955339e-08
7.04746615181e-08
4.63186855279e-08
7.06633362573e-08
6.37818987963e-08
-1.91059072399e-07
1.47316674401e-07
-2.01050057543e-07
2.29310059931e-07
-1.86076585267e-07
3.15542325738e-07
-1.74437309483e-07
4.27550712052e-07
-1.76919251531e-07
5.15583310439e-07
-1.27839273725e-07
5.68028270815e-07
-8.0113622761e-08
6.17956050905e-07
-9.51742852782e-08
6.72202365233e-07
-1.19089856597e-07
7.32366666491e-07
-1.21688822698e-07
7.9133811761e-07
-1.16004277945e-07
8.41145772742e-07
-1.11341293489e-07
8.87528702976e-07
-1.03270921746e-07
9.33894725847e-07
-9.44088848839e-08
9.80579735707e-07
-9.14017130703e-08
1.03427557812e-06
-1.05817458733e-07
1.08333956229e-06
-1.03738536747e-07
1.10984263678e-06
-7.3496467359e-08
1.133397333e-06
-6.09313428947e-08
1.17292384516e-06
-7.38354343068e-08
1.23082550102e-06
-1.04775154216e-07
1.30568446027e-06
-1.36394056471e-07
1.37976593979e-06
-1.40103793322e-07
1.44049312507e-06
-1.25690775513e-07
1.497992349e-06
-1.18742947339e-07
1.55925644937e-06
-1.18496317687e-07
1.61579065661e-06
-1.12615032441e-07
1.66681515675e-06
-1.04541651729e-07
1.71529798017e-06
-9.79360364919e-08
1.76192112672e-06
-9.29131797167e-08
1.8055990143e-06
-9.0497302166e-08
1.847117777e-06
-8.74672229847e-08
1.88519171151e-06
-8.06611669354e-08
1.92682983757e-06
-8.62245733724e-08
1.97723472073e-06
-9.64888540342e-08
2.02421757336e-06
-9.34635398473e-08
2.07175198597e-06
-9.75426462615e-08
2.12799517766e-06
-1.0578716885e-07
2.18860781203e-06
-1.07247030624e-07
2.24078039086e-06
-9.97268054525e-08
2.25341554083e-06
-7.07135257565e-08
2.24405609178e-06
-4.86308643168e-08
2.25888142416e-06
-5.54429989078e-08
2.29222213907e-06
-6.27416718621e-08
2.32938266016e-06
-6.22516051015e-08
2.36812051148e-06
-5.86174580065e-08
2.40326389249e-06
-4.96595289261e-08
2.43449190093e-06
-3.8303237674e-08
2.45884400488e-06
-2.48615257438e-08
2.46106323201e-06
-5.55043378576e-09
2.42848473388e-06
1.54698689096e-08
2.39103166716e-06
2.16941683364e-08
2.41310801456e-06
-4.12586015493e-10
2.43271250945e-06
2.44746123277e-08
2.40170651635e-06
9.5230109868e-08
2.38234129542e-06
1.19654976907e-07
2.36329070751e-06
1.10876682967e-07
2.31646862288e-06
1.09306631558e-07
2.26922777551e-06
1.24440816028e-07
2.20642492037e-06
1.53671063746e-07
2.02566356537e-06
2.33285401728e-07
1.83134108873e-06
2.68849731897e-07
1.6270094953e-06
4.18870827455e-07
1.40740313346e-06
4.48451005109e-07
1.22143940913e-06
3.4569955177e-07
1.07021282359e-06
2.56426127506e-07
9.78684654578e-07
1.84862417958e-07
9.11109334457e-07
1.59936873528e-07
8.31175845528e-07
1.75695143997e-07
7.33294938659e-07
2.00785980465e-07
6.25028372561e-07
2.12769338475e-07
5.19401044649e-07
2.04982426484e-07
4.31890482119e-07
1.79869507564e-07
3.65478391088e-07
1.60767376137e-07
3.02493420417e-07
1.4315201133e-07
2.45405681306e-07
1.26061404338e-07
1.8699328763e-07
1.07220335783e-07
1.36302335428e-07
1.03555162752e-07
7.09926681584e-08
1.1192715309e-07
1.41653883498e-07
8.39694439288e-08
-2.76423959483e-07
1.22413968218e-07
-2.40601800517e-07
2.2562359587e-07
-2.90359227535e-07
3.48001211496e-07
-2.97915509658e-07
4.58206497852e-07
-2.8817248493e-07
5.11841873847e-07
-1.82315793192e-07
5.39258476018e-07
-1.08327337725e-07
5.9420942894e-07
-1.50979084949e-07
6.58771722219e-07
-1.84419956731e-07
7.22798297062e-07
-1.86373842115e-07
7.83218801662e-07
-1.76977881439e-07
8.35219285855e-07
-1.63893137872e-07
8.81590629518e-07
-1.50207086358e-07
9.28630510634e-07
-1.42018937915e-07
9.65663300843e-07
-1.28959556017e-07
9.55308273941e-07
-9.59044804646e-08
9.19093534494e-07
-6.77992793162e-08
9.24708404646e-07
-7.93229547754e-08
9.85590903066e-07
-1.21971205924e-07
1.10145844041e-06
-1.89862571419e-07
1.22570598613e-06
-2.2918608492e-07
1.30715319703e-06
-2.18027537985e-07
1.36794544069e-06
-2.01046932924e-07
1.43514656722e-06
-1.93056125268e-07
1.50029612482e-06
-1.84027899637e-07
1.55621981638e-06
-1.74571821518e-07
1.60818229903e-06
-1.64701666678e-07
1.65870378921e-06
-1.55209069839e-07
1.70649425648e-06
-1.45848433233e-07
1.75292874551e-06
-1.39497876787e-07
1.79392248317e-06
-1.31630771659e-07
1.83283792799e-06
-1.26523429607e-07
1.87469265643e-06
-1.22666304445e-07
1.90427432848e-06
-1.1595413464e-07
1.94272698255e-06
-1.35015440287e-07
2.00570583945e-06
-1.56526946341e-07
2.05715988064e-06
-1.4904707147e-07
2.10620605615e-06
-1.54882382788e-07
2.1747953301e-06
-1.75866793976e-07
2.24128640632e-06
-1.66291118163e-07
2.29880011145e-06
-1.28286515214e-07
2.34794662637e-06
-9.78471880209e-08
2.38380828831e-06
-9.13342210261e-08
2.41258290057e-06
-9.15523177347e-08
2.4380223503e-06
-8.76901983583e-08
2.45902276817e-06
-7.96224792155e-08
2.47665757719e-06
-6.72616920634e-08
2.49031001297e-06
-5.192732483e-08
2.49913297504e-06
-3.36237264831e-08
2.50534581558e-06
-1.17141555385e-08
2.51111492036e-06
9.78391160108e-09
2.50868665929e-06
2.42123223703e-08
2.47086281527e-06
3.75367111717e-08
2.41980350414e-06
7.56715650015e-08
2.40049410605e-06
1.14742057239e-07
2.38753335293e-06
1.32855585617e-07
2.34999276828e-06
1.48725576527e-07
2.29131438656e-06
1.68338659244e-07
2.2192846153e-06
1.96892538099e-07
2.12682360216e-06
2.46556931838e-07
2.0304773477e-06
3.30123540803e-07
1.84835043763e-06
4.51430502523e-07
1.5683675352e-06
6.99159032674e-07
1.2732585057e-06
7.43753191066e-07
1.09202949597e-06
5.27081128549e-07
1.01759648298e-06
3.3094705582e-07
9.39779271561e-07
2.62783874045e-07
8.49873754583e-07
2.49967335518e-07
7.56237199763e-07
2.69502450876e-07
6.56013630245e-07
3.0121831433e-07
5.60926641249e-07
3.08084163977e-07
4.85571618161e-07
2.80553413908e-07
4.2100487137e-07
2.44640344365e-07
3.58444059642e-07
2.23502144893e-07
2.89338082143e-07
2.12403880338e-07
2.21478436845e-07
1.94056622688e-07
1.64722574779e-07
1.6418794669e-07
1.23142791969e-07
1.45305736613e-07
5.23232418951e-08
1.8274936687e-07
1.94136323608e-07
5.81660260079e-08
-3.35382528348e-07
7.40226554879e-08
-2.57201311965e-07
1.95230604481e-07
-4.12636804445e-07
2.92056985324e-07
-3.95849282504e-07
2.90612405223e-07
-2.87503434576e-07
2.46261661366e-07
-1.38313317079e-07
3.44598377975e-07
-2.07109102981e-07
5.10451709707e-07
-3.1749409302e-07
6.23763856429e-07
-2.98415567795e-07
7.01869716611e-07
-2.65092069681e-07
7.70087377381e-07
-2.45804478407e-07
8.27925289436e-07
-2.22360810307e-07
8.67738107566e-07
-1.90641879087e-07
8.62739157602e-07
-1.37590495079e-07
8.2416461696e-07
-9.08235477936e-08
8.11827741401e-07
-8.38490199095e-08
8.56889696561e-07
-1.1306693731e-07
9.57045010277e-07
-1.79647768036e-07
1.08716233299e-06
-2.522742406e-07
1.18384012729e-06
-2.86743690195e-07
1.24192292827e-06
-2.87474981867e-07
1.30457573297e-06
-2.80859706821e-07
1.37190754719e-06
-2.68556113492e-07
1.4330283506e-06
-2.54332672309e-07
1.48980352354e-06
-2.40964823392e-07
1.54328677836e-06
-2.28193338274e-07
1.59603871118e-06
-2.17604974763e-07
1.64613035058e-06
-2.05426269183e-07
1.6947698226e-06
-1.94634524801e-07
1.73775883346e-06
-1.82632912855e-07
1.78135020518e-06
-1.75377194532e-07
1.81538437665e-06
-1.6072251475e-07
1.84115287257e-06
-1.48565195614e-07
1.89478882871e-06
-1.69686050276e-07
1.94607164953e-06
-1.86389436065e-07
1.99595791719e-06
-2.06463511503e-07
2.07801146476e-06
-2.31148400007e-07
2.15633396581e-06
-2.33253027287e-07
2.2065895191e-06
-2.26198614765e-07
2.24780624355e-06
-2.0757233981e-07
2.29455835753e-06
-1.75105362862e-07
2.34218150636e-06
-1.45516311182e-07
2.38116323788e-06
-1.30367873756e-07
2.41204045157e-06
-1.22461835542e-07
2.43776057479e-06
-1.13443020013e-07
2.45913058735e-06
-1.01000586284e-07
2.47673842217e-06
-8.48727939228e-08
2.49034582733e-06
-6.55107266584e-08
2.49965748279e-06
-4.29075339247e-08
2.50515276244e-06
-1.71574511742e-08
2.50537829273e-06
9.61140135135e-09
2.49401687064e-06
3.5647005507e-08
2.46608760871e-06
6.55544445495e-08
2.4363473692e-06
1.05551064577e-07
2.40798352757e-06
1.43284006982e-07
2.368438705e-06
1.72637630269e-07
2.31302862467e-06
2.04401804053e-07
2.23727159922e-06
2.44401067079e-07
2.13554882444e-06
2.98932019508e-07
2.00307519892e-06
3.79364287273e-07
1.83769615604e-06
4.95784612378e-07
1.6308308225e-06
6.58603880793e-07
1.46206871622e-06
8.68322009696e-07
1.27463746981e-06
9.31491660745e-07
1.08584283262e-06
7.16023196855e-07
9.48915003591e-07
4.67972450137e-07
8.5287689783e-07
3.58915671837e-07
7.72526087491e-07
3.30456736179e-07
6.96753333968e-07
3.45477212574e-07
6.17226828154e-07
3.80996971276e-07
5.32550669308e-07
3.93013854169e-07
4.50455675322e-07
3.62879562029e-07
3.7183488201e-07
3.2344056497e-07
2.97185379614e-07
2.982981926e-07
2.28854588219e-07
2.80874219039e-07
1.60746650302e-07
2.62311470206e-07
1.03965437161e-07
2.21021896422e-07
6.89730645772e-08
1.80373359414e-07
3.50128049332e-08
2.16953041366e-07
2.29132886907e-07
7.37580777633e-09
-3.43464951897e-07
6.63758052458e-08
-3.168073437e-07
1.63902857359e-07
-5.11133307267e-07
2.2701068461e-07
-4.59884571705e-07
2.03701197017e-07
-2.64704940827e-07
2.56198314664e-07
-1.9111837535e-07
3.92173740453e-07
-3.43547801735e-07
4.97775570132e-07
-4.23728593232e-07
5.84108265615e-07
-3.85361466763e-07
6.66127966362e-07
-3.47750681883e-07
7.43293097466e-07
-3.23659854965e-07
7.79398722036e-07
-2.59089583904e-07
7.573585285e-07
-1.69144118313e-07
7.36447030103e-07
-1.17074373875e-07
7.67904259068e-07
-1.22554480318e-07
8.46167635489e-07
-1.62338150267e-07
9.58549751241e-07
-2.25658181872e-07
1.06541016372e-06
-2.86722663384e-07
1.1285486327e-06
-3.15639182201e-07
1.17259670529e-06
-3.31018186671e-07
1.23248111042e-06
-3.47573438526e-07
1.29855484228e-06
-3.47134097052e-07
1.36159294677e-06
-3.31777132326e-07
1.41981949559e-06
-3.12739101618e-07
1.47476109211e-06
-2.96066359046e-07
1.52925331081e-06
-2.82852004957e-07
1.57889459096e-06
-2.67374883249e-07
1.62956109445e-06
-2.56241861128e-07
1.67375187552e-06
-2.38984274676e-07
1.71743276651e-06
-2.26482972861e-07
1.74880475506e-06
-2.06910342175e-07
1.78979731794e-06
-2.01844822042e-07
1.85080780186e-06
-2.09680996496e-07
1.89401641438e-06
-2.12967302776e-07
1.95471071724e-06
-2.47129646665e-07
2.03588105475e-06
-2.87685958673e-07
2.10232344371e-06
-2.9765288234e-07
2.15822732102e-06
-2.89237815171e-07
2.20529287096e-06
-2.73342274608e-07
2.24835047432e-06
-2.50708993912e-07
2.29389819437e-06
-2.20719225138e-07
2.33970358961e-06
-1.91385855711e-07
2.37948662065e-06
-1.7020377502e-07
2.41186586435e-06
-1.54894139513e-07
2.43845113733e-06
-1.4006949026e-07
2.46037051474e-06
-1.22955959916e-07
2.4781417532e-06
-1.02661433912e-07
2.49162493759e-06
-7.90002783358e-08
2.50040823688e-06
-5.16757241935e-08
2.5038767881e-06
-2.06062222864e-08
2.50001076942e-06
1.35119378192e-08
2.48522519626e-06
5.0474412845e-08
2.45886803968e-06
9.19810592651e-08
2.42664953908e-06
1.37873950144e-07
2.38769966712e-06
1.82392377684e-07
2.33410852729e-06
2.26413568176e-07
2.25935097705e-06
2.79379561063e-07
2.15573896198e-06
3.48234223347e-07
2.01738339884e-06
4.37509073112e-07
1.84651269483e-06
5.5043699886e-07
1.65606235554e-06
6.86493454457e-07
1.47721156291e-06
8.37792906933e-07
1.36955298297e-06
9.76289540401e-07
1.22423502526e-06
1.0770874714e-06
1.08394353337e-06
8.56535459236e-07
9.42780719572e-07
6.09263728585e-07
8.11703191214e-07
4.90127566392e-07
7.06628618118e-07
4.35709780952e-07
6.23782498277e-07
4.2854353316e-07
5.46189937409e-07
4.58838481545e-07
4.62091321433e-07
4.77368652274e-07
3.81791498581e-07
4.43387692535e-07
3.08959372172e-07
3.96444587884e-07
2.37531398249e-07
3.69885149125e-07
1.68424328426e-07
3.50113301466e-07
1.08798466892e-07
3.22012192228e-07
7.57457866391e-08
2.54217849747e-07
4.52291770922e-08
2.11013975199e-07
1.67906162034e-08
2.45383016575e-07
2.46076299568e-07
2.31061469017e-09
-3.46040007769e-07
8.53245093371e-08
-4.00372812085e-07
1.34994762704e-07
-5.61634593946e-07
1.6197524669e-07
-4.87517968972e-07
1.52845414937e-07
-2.55900661322e-07
2.85029901514e-07
-3.23681336609e-07
4.20846912076e-07
-4.79926458889e-07
4.82026889382e-07
-4.85467438955e-07
5.50751848492e-07
-4.54726670105e-07
6.15864834757e-07
-4.13556961543e-07
6.45728523835e-07
-3.5417259256e-07
6.09049419496e-07
-2.22908400556e-07
6.03780784758e-07
-1.6421522076e-07
6.56137238706e-07
-1.69681054117e-07
7.4762920561e-07
-2.14259673982e-07
8.75364215696e-07
-2.90285345432e-07
9.92697694302e-07
-3.43231521147e-07
1.05330949457e-06
-3.4759660902e-07
1.09400593126e-06
-3.56587819331e-07
1.1585778725e-06
-3.95833886715e-07
1.2257493315e-06
-4.14976467287e-07
1.28560955004e-06
-4.07209560849e-07
1.34434232642e-06
-3.90709968146e-07
1.40372399774e-06
-3.7229790214e-07
1.45955228937e-06
-3.52074363986e-07
1.50268654624e-06
-3.26138240142e-07
1.55433964798e-06
-3.19190967003e-07
1.5995581586e-06
-3.01619577229e-07
1.64510073996e-06
-2.84682412836e-07
1.67123022324e-06
-2.5277101129e-07
1.70594126312e-06
-2.41767647464e-07
1.75175173278e-06
-2.47761706647e-07
1.79881987211e-06
-2.56811920835e-07
1.88883686239e-06
-3.03026757303e-07
1.98158945164e-06
-3.3992552568e-07
2.05097429347e-06
-3.57136510845e-07
2.10680189251e-06
-3.53566867873e-07
2.15680878053e-06
-3.39340156585e-07
2.20323084099e-06
-3.19863111971e-07
2.24798905329e-06
-2.95555808992e-07
2.29337589398e-06
-2.66184619136e-07
2.33802651086e-06
-2.3610542683e-07
2.37800266784e-06
-2.10248347222e-07
2.41154385715e-06
-1.88500578324e-07
2.43921056677e-06
-1.67798949434e-07
2.46187006962e-06
-1.45668847797e-07
2.47992483595e-06
-1.20760675212e-07
2.49312201021e-06
-9.22263823314e-08
2.5007521156e-06
-5.93247575069e-08
2.50173034726e-06
-2.15855555246e-08
2.49424924232e-06
2.09937563059e-08
2.47634481481e-06
6.83964318522e-08
2.44782930998e-06
1.20535197208e-07
2.4097182626e-06
1.76060107672e-07
2.35845510059e-06
2.33753124118e-07
2.28651775207e-06
2.98493550336e-07
2.18681956169e-06
3.79208931217e-07
2.05418131468e-06
4.81017264088e-07
1.88891407143e-06
6.0291648042e-07
1.70245517647e-06
7.3706604263e-07
1.51471168324e-06
8.74449556958e-07
1.34859630419e-06
1.00416547586e-06
1.24896913013e-06
1.07626628674e-06
1.13149752025e-06
1.19495128122e-06
9.76384321099e-07
1.01183672776e-06
8.62985129149e-07
7.22787589499e-07
7.4405660026e-07
6.0919136984e-07
6.35427252885e-07
5.44513735131e-07
5.48097321512e-07
5.1608535355e-07
4.67072837105e-07
5.40108575832e-07
3.86647271812e-07
5.58019806851e-07
3.19661607779e-07
5.10562001915e-07
2.48382774985e-07
4.67893532702e-07
1.7628336792e-07
4.42140981365e-07
1.12947083145e-07
4.13574909603e-07
7.47791238912e-08
3.60317678037e-07
4.66138120809e-08
2.82428170498e-07
2.18433764095e-08
2.35858240132e-07
8.40899378174e-09
2.59093336468e-07
2.54438368806e-07
3.07211671924e-08
-3.7721731067e-07
1.2928460981e-07
-4.99495846699e-07
1.70219276857e-07
-6.03341006195e-07
1.38022706787e-07
-4.5589105062e-07
1.84757869701e-07
-3.02958014665e-07
3.35785206963e-07
-4.75176794323e-07
4.09747039985e-07
-5.54419778501e-07
4.60334174083e-07
-5.36670114644e-07
5.0418331069e-07
-4.99185577071e-07
5.6835886728e-07
-4.78408541513e-07
5.51631890203e-07
-3.38005246437e-07
5.34643018459e-07
-2.06267932237e-07
5.83503645125e-07
-2.13333672254e-07
6.56423089009e-07
-2.42786500425e-07
7.7579696846e-07
-3.33840700156e-07
8.99459118506e-07
-4.14226690966e-07
9.59912648396e-07
-4.03976605115e-07
9.9768219256e-07
-3.85630678795e-07
1.0706580163e-06
-4.2982140951e-07
1.14612978411e-06
-4.71565095767e-07
1.20863146656e-06
-4.7772558472e-07
1.26811328051e-06
-4.66920930158e-07
1.3275135326e-06
-4.50305474445e-07
1.37964556103e-06
-4.24628497055e-07
1.42417063566e-06
-3.96783570432e-07
1.47038016666e-06
-3.72512309723e-07
1.51030675223e-06
-3.592743194e-07
1.55771915562e-06
-3.49178324868e-07
1.59148914778e-06
-3.18609699677e-07
1.61883699609e-06
-2.80263252671e-07
1.6709833585e-06
-2.94022841227e-07
1.73071335761e-06
-3.07574030816e-07
1.81197272564e-06
-3.38114686701e-07
1.90014178932e-06
-3.91234075183e-07
1.98863689255e-06
-4.2848720569e-07
2.05276463723e-06
-4.21354896038e-07
2.10485830598e-06
-4.05764216142e-07
2.15371122265e-06
-3.88303612174e-07
2.20113925858e-06
-3.67398847005e-07
2.24734956955e-06
-3.41867443025e-07
2.29297800752e-06
-3.11905560686e-07
2.33709301843e-06
-2.80309031704e-07
2.37716962656e-06
-2.50410628217e-07
2.4116038958e-06
-2.23020258181e-07
2.44035123625e-06
-1.9662853226e-07
2.46385315961e-06
-1.69249567608e-07
2.48221229308e-06
-1.39189638427e-07
2.49493102376e-06
-1.05007065426e-07
2.50108112904e-06
-6.55169710147e-08
2.49942345709e-06
-1.99693643606e-08
2.48845338481e-06
3.19427284737e-08
2.46672698906e-06
9.0104208911e-08
2.43326622365e-06
1.53996109178e-07
2.38615008311e-06
2.23193605024e-07
2.32010621664e-06
2.99865279841e-07
2.22792321913e-06
3.90718374741e-07
2.10462995689e-06
5.02590774296e-07
1.95088317754e-06
6.34845376203e-07
1.77660267366e-06
7.77320319503e-07
1.59975783504e-06
9.14079558647e-07
1.44538740363e-06
1.02904240949e-06
1.33461273797e-06
1.11526064856e-06
1.21531258058e-06
1.19594161526e-06
1.10847942241e-06
1.30203529009e-06
8.97555122116e-07
1.22293029594e-06
7.70076729326e-07
8.50376925162e-07
6.75364748244e-07
7.04033517072e-07
5.75186598489e-07
6.44844484072e-07
4.78780791255e-07
6.12685454377e-07
3.93081883614e-07
6.26005507848e-07
3.28444518946e-07
6.22848866707e-07
2.64130668522e-07
5.75058583574e-07
1.86963260193e-07
5.45239495854e-07
1.15712406895e-07
5.13545963434e-07
6.3483279085e-08
4.65944470768e-07
4.06904112762e-08
3.831743394e-07
1.36948002745e-08
3.09555327773e-07
-5.55663306227e-09
2.55267874363e-07
-3.18365473121e-09
2.56632579454e-07
2.51398905076e-07
5.80273890712e-08
-4.355179993e-07
1.44158157022e-07
-5.86207042275e-07
1.58699568039e-07
-6.18389289184e-07
1.00375082193e-07
-3.97890724438e-07
2.08949147449e-07
-4.11895680186e-07
3.32366236104e-07
-5.99103522865e-07
3.84167248514e-07
-6.06795350055e-07
4.38094198592e-07
-5.91174330084e-07
4.4451122675e-07
-5.06260912844e-07
4.66312906504e-07
-5.00764805295e-07
4.41179026801e-07
-3.13236013649e-07
5.05071124098e-07
-2.70421572721e-07
5.67921525785e-07
-2.76380919282e-07
6.69690784221e-07
-3.44769060274e-07
7.93408958647e-07
-4.57833161561e-07
8.61898937886e-07
-4.83024900077e-07
8.95620216998e-07
-4.37991730815e-07
9.69843361004e-07
-4.60130972725e-07
1.05550560717e-06
-5.15760294366e-07
1.1225809516e-06
-5.38914930336e-07
1.18151401122e-06
-5.36914850922e-07
1.23956547817e-06
-5.2518879979e-07
1.30213822495e-06
-5.13102896855e-07
1.36162978073e-06
-4.84331998803e-07
1.39889015804e-06
-4.34216108146e-07
1.45047312958e-06
-4.24274523119e-07
1.48862333124e-06
-3.97583061787e-07
1.51249282894e-06
-3.73199215601e-07
1.54379380439e-06
-3.50039633178e-07
1.62639214956e-06
-3.62976653533e-07
1.6854551506e-06
-3.53187661718e-07
1.73035782613e-06
-3.52523754893e-07
1.81997774954e-06
-4.27776862388e-07
1.92145415676e-06
-4.92769836346e-07
1.98894560346e-06
-4.9606459178e-07
2.04642599212e-06
-4.78942041522e-07
2.09946981048e-06
-4.5892663115e-07
2.1499075818e-06
-4.38864986191e-07
2.19885641897e-06
-4.16470403263e-07
2.2464607357e-06
-3.8958869387e-07
2.29265642634e-06
-3.58211598312e-07
2.33672301224e-06
-3.24481635667e-07
2.37707964439e-06
-2.90872576535e-07
2.41238971903e-06
-2.58435785011e-07
2.4422399152e-06
-2.2658417773e-07
2.46663990157e-06
-1.93752545049e-07
2.48530902397e-06
-1.57958999781e-07
2.49746787666e-06
-1.17253628119e-07
2.50200565859e-06
-7.01433029572e-08
2.49766742167e-06
-1.56867494502e-08
2.48301699979e-06
4.65253718291e-08
2.45652424287e-06
1.16554639898e-07
2.41610558933e-06
1.94379764388e-07
2.35800113149e-06
2.8129606992e-07
2.27626616034e-06
3.81557245318e-07
2.16564979173e-06
5.01382481721e-07
2.02566888336e-06
6.4258093347e-07
1.86289980926e-06
7.97687956633e-07
1.68968236498e-06
9.50681966519e-07
1.52439746784e-06
1.07952033217e-06
1.38899462646e-06
1.16468692797e-06
1.28483760696e-06
1.21968646755e-06
1.20013757426e-06
1.28093988162e-06
1.15477957171e-06
1.34768016399e-06
9.7804122981e-07
1.39991216397e-06
7.1631623838e-07
1.11222602177e-06
5.83953340942e-07
8.3646694682e-07
4.84916558801e-07
7.43974710094e-07
3.96138217978e-07
7.01579417273e-07
3.31365236658e-07
6.90930910942e-07
2.79631934337e-07
6.74763932433e-07
2.05969562835e-07
6.48887515081e-07
1.23429376369e-07
6.27952729727e-07
5.40625227196e-08
5.83075712479e-07
1.32830897919e-08
5.06819914176e-07
-9.83780842698e-09
4.06424488823e-07
-2.92392702225e-08
3.29048918328e-07
-4.05615306739e-08
2.66607564828e-07
-2.40577827975e-08
2.40433542527e-07
2.27318267443e-07
7.59127319863e-08
-5.11957943455e-07
1.38397435153e-07
-6.49260826451e-07
1.22437881947e-07
-6.02967193664e-07
1.28214478773e-07
-4.03985143368e-07
2.52843136674e-07
-5.36944585597e-07
3.04507560812e-07
-6.51302679273e-07
3.52042939235e-07
-6.5491938236e-07
4.01924662618e-07
-6.41638252217e-07
4.12622760355e-07
-5.1745622719e-07
4.28170235589e-07
-5.16845192102e-07
4.40845641824e-07
-3.2618290459e-07
4.96804567498e-07
-3.26604104603e-07
5.69136890708e-07
-3.48898979071e-07
6.85056134221e-07
-4.60917270429e-07
7.89407929174e-07
-5.62527836735e-07
8.27514207597e-07
-5.21480562654e-07
8.72163147948e-07
-4.82936980639e-07
9.50774681714e-07
-5.39025462218e-07
1.02825764993e-06
-5.93531959108e-07
1.09402985197e-06
-6.04958921812e-07
1.15320748402e-06
-5.96326439752e-07
1.20493496115e-06
-5.77165956138e-07
1.25366712504e-06
-5.62085453988e-07
1.30366819039e-06
-5.34539240004e-07
1.34552385568e-06
-4.76275637421e-07
1.3876068628e-06
-4.66528820662e-07
1.44073867538e-06
-4.50859847864e-07
1.49917957678e-06
-4.31784018612e-07
1.55724187004e-06
-4.08237217572e-07
1.60647939918e-06
-4.12316852955e-07
1.66843318724e-06
-4.15189740393e-07
1.77271967551e-06
-4.56843648172e-07
1.85759525927e-06
-5.12692634799e-07
1.92213795246e-06
-5.57384730171e-07
1.98162406811e-06
-5.55657624101e-07
2.03855071838e-06
-5.359938362e-07
2.093255785e-06
-5.13765077901e-07
2.14558480456e-06
-4.91330252831e-07
2.19608798101e-06
-4.67109296525e-07
2.24507738788e-06
-4.38710994306e-07
2.2922587881e-06
-4.055229922e-07
2.33685525034e-06
-3.69206600804e-07
2.37780290486e-06
-3.31948372675e-07
2.41413071344e-06
-2.94893286205e-07
2.44521897084e-06
-2.57803876448e-07
2.47062213623e-06
-2.19290548639e-07
2.48968965638e-06
-1.77157911508e-07
2.50137824201e-06
-1.29077979188e-07
2.50442926499e-06
-7.32867384066e-08
2.49744083829e-06
-8.81832799151e-09
2.47895245818e-06
6.49492934911e-08
2.44701528762e-06
1.48413597133e-07
2.39864602697e-06
2.42690224946e-07
2.32909691262e-06
3.50732017382e-07
2.23309226271e-06
4.77556584741e-07
2.10840492884e-06
6.25978868321e-07
1.95965824031e-06
7.91360432353e-07
1.79513938557e-06
9.62292523694e-07
1.62264370876e-06
1.12326281955e-06
1.45873592462e-06
1.24361281964e-06
1.32581956058e-06
1.2977564748e-06
1.22585273811e-06
1.31989110427e-06
1.15462573794e-06
1.35243584063e-06
1.10928017244e-06
1.39334726604e-06
1.06348489054e-06
1.44594248801e-06
7.9371447687e-07
1.38214127125e-06
5.00716490903e-07
1.12951902598e-06
3.9951041292e-07
8.45208648677e-07
3.33725164348e-07
7.67406673548e-07
2.87365289442e-07
7.37395060836e-07
2.32515983776e-07
7.2972376506e-07
1.47643055593e-07
7.33939363255e-07
5.80339958154e-08
7.17728106675e-07
-1.30146216891e-08
6.5423494439e-07
-5.4353751921e-08
5.4831716587e-07
-7.98397725488e-08
4.32018883264e-07
-8.95219815185e-08
3.38837782495e-07
-8.28157766971e-08
2.60156153381e-07
-4.88120787225e-08
2.06374202586e-07
1.78664629965e-07
8.76566337872e-08
-5.99911532282e-07
1.4272627455e-07
-7.04810089007e-07
1.0755966693e-07
-5.68190417635e-07
1.54007953526e-07
-4.50811673651e-07
2.59625178616e-07
-6.43077161429e-07
2.74753126425e-07
-6.66999945216e-07
3.1439651482e-07
-6.95096529274e-07
3.32073839199e-07
-6.59856135921e-07
3.7185531469e-07
-5.57659810147e-07
3.6076120225e-07
-5.06089180745e-07
4.14289219496e-07
-3.79957172641e-07
4.82801467832e-07
-3.95293304425e-07
5.62294492077e-07
-4.28611337413e-07
6.67890658114e-07
-5.66827043618e-07
7.32284748926e-07
-6.27265362259e-07
7.56169920879e-07
-5.45684906142e-07
8.30017254526e-07
-5.57083362181e-07
9.16148216176e-07
-6.25454415819e-07
9.90082621665e-07
-6.67755651988e-07
1.05880936415e-06
-6.73951064402e-07
1.12355880316e-06
-6.61360378772e-07
1.18257413131e-06
-6.36445789756e-07
1.2225701795e-06
-6.02315389344e-07
1.26000388416e-06
-5.72203462526e-07
1.32001404536e-06
-5.36469913705e-07
1.35751681392e-06
-5.04191361039e-07
1.38523505902e-06
-4.78749856459e-07
1.41828117277e-06
-4.64977257903e-07
1.49268382471e-06
-4.82743455606e-07
1.57867299032e-06
-4.98379131506e-07
1.66678154778e-06
-5.03331756103e-07
1.75025660618e-06
-5.4033259591e-07
1.84818800256e-06
-6.10664950509e-07
1.91596332984e-06
-6.25254812611e-07
1.97341349992e-06
-6.13230935292e-07
2.03051458499e-06
-5.93231362513e-07
2.08682391964e-06
-5.7021843216e-07
2.14101534634e-06
-5.45671506994e-07
2.1930465167e-06
-5.19292905432e-07
2.24334791398e-06
-4.89165729002e-07
2.29171099209e-06
-4.54038515819e-07
2.337324533e-06
-4.14971484585e-07
2.37929813303e-06
-3.74075410245e-07
2.41690361789e-06
-3.32653680916e-07
2.44948864529e-06
-2.9055015797e-07
2.47624662372e-06
-2.46209652561e-07
2.4960628513e-06
-1.9714925409e-07
2.50765164994e-06
-1.40804708771e-07
2.50955650699e-06
-7.53709463496e-08
2.50030388309e-06
3.56861907913e-10
2.47808340562e-06
8.70353310284e-08
2.44067107587e-06
1.8574444871e-07
2.38444957601e-06
2.98762426084e-07
2.30456286746e-06
4.30537996776e-07
2.19676923393e-06
5.85156101745e-07
2.06300021302e-06
7.59723939603e-07
1.91264624742e-06
9.41663179184e-07
1.74934343942e-06
1.12567541274e-06
1.56859278375e-06
1.30410510085e-06
1.3915695403e-06
1.42068104164e-06
1.25630196631e-06
1.43309244793e-06
1.15419401894e-06
1.42216167923e-06
1.07506792529e-06
1.43179462966e-06
1.02474901786e-06
1.44397584199e-06
1.01919638353e-06
1.45180008221e-06
9.34118664336e-07
1.46745812526e-06
6.17526296284e-07
1.44622351151e-06
3.26496584944e-07
1.1362265271e-06
2.74246987733e-07
8.19639467658e-07
2.49873034709e-07
7.6180911411e-07
1.90461822849e-07
7.89268096615e-07
9.3442738564e-08
8.31086001323e-07
-9.22917799916e-09
8.20510843823e-07
-9.18846149899e-08
7.37068910812e-07
-1.46399691835e-07
6.02899243791e-07
-1.65862903567e-07
4.51582791581e-07
-1.61184940593e-07
3.34337386028e-07
-1.27705590145e-07
2.2667037683e-07
-7.01247559801e-08
1.49106678403e-07
1.08603106055e-07
8.01787817686e-08
-6.80675867573e-07
1.23766966112e-07
-7.48936843694e-07
1.07726591259e-07
-5.52525650109e-07
1.86235031678e-07
-5.29721897968e-07