/*--------------------------------*- C++ -*----------------------------------*\
| =========                 |                                                 |
| \\      /  F ield         | OpenFOAM: The Open Source CFD Toolbox           |
|  \\    /   O peration     | Version:  v1806                                 |
|   \\  /    A nd           | Web:      www.OpenFOAM.com                      |
|    \\/     M anipulation  |                                                 |
\*---------------------------------------------------------------------------*/
FoamFile
{
    version     2.0;
    format      ascii;
    class       volScalarField;
    location    "432";
    object      p;
}
// * * * * * * * * * * * * * * * * * * * * * * * * * * * * * * * * * * * * * //

dimensions      [0 2 -2 0 0 0 0];


internalField   nonuniform List<scalar> 
6400
(
0.155052727229
0.155055067674
0.155061700814
0.155074508897
0.155093151479
0.155117456973
0.155147464362
0.155184192066
0.155228015365
0.155279553494
0.155344016816
0.155424113658
0.155516969076
0.155622604292
0.155742776281
0.155879590019
0.156034011437
0.156205630616
0.156392790293
0.156590806154
0.15679399072
0.157002770356
0.157223030934
0.157461356131
0.157722126628
0.158005176484
0.158307177938
0.158625721523
0.158960542572
0.159312314518
0.159681561375
0.160066655171
0.160461957839
0.160861838676
0.161264065564
0.161665423763
0.16206546116
0.162470864723
0.162880645378
0.163285158744
0.163685603063
0.164095573098
0.164522320524
0.164958355058
0.165394470252
0.165824994323
0.166245685764
0.166653785559
0.167046910976
0.167423111226
0.167781131158
0.168117019341
0.168424619999
0.168695586959
0.168929768464
0.169134345254
0.169307316236
0.169441434953
0.169536493475
0.169600583196
0.169639752217
0.169658283247
0.169662408031
0.169653850742
0.169627594244
0.169570119102
0.169479800044
0.169375003148
0.169275153922
0.169186309325
0.169106945811
0.169033176406
0.168962367513
0.168897821617
0.168838892105
0.168786962756
0.168743181894
0.16871419799
0.16869545768
0.168687526315
0.155049239983
0.155051704602
0.155057644051
0.155070168562
0.155090195281
0.155115852546
0.155146317289
0.155181550674
0.155223642542
0.155275125262
0.155339283219
0.155418292145
0.15551139205
0.155617955796
0.15573839662
0.155873982023
0.15602777307
0.156200101707
0.156388759339
0.15658774113
0.156789185698
0.156995813824
0.157215288852
0.157453319471
0.157714427472
0.157998290056
0.158300547658
0.158619661934
0.158955488245
0.159308084537
0.159677369074
0.160062881447
0.16045934384
0.160859380959
0.161261904555
0.161663588872
0.162063330976
0.162469167716
0.162879977085
0.163284691911
0.163682950026
0.164092593694
0.164523455165
0.164962461286
0.165399903598
0.165831848667
0.166253883174
0.166663638364
0.167058209165
0.167434142774
0.167790319
0.16812722746
0.168441058404
0.168714147074
0.168949622858
0.169157376148
0.169328476799
0.169459015311
0.169553035089
0.169615846843
0.169652621087
0.169670389895
0.16967321926
0.169663807199
0.169637020613
0.169579269429
0.169486119039
0.169378233287
0.169275887393
0.169184766652
0.169103558063
0.169027994335
0.168955015737
0.168887924937
0.168828561678
0.168777369085
0.16873619934
0.168707638448
0.168689194185
0.168682987873
0.155039553234
0.155043689862
0.155048943883
0.155060417887
0.155079813044
0.155108668735
0.155142023208
0.155176224292
0.155216046416
0.155266258649
0.155329721116
0.155408150809
0.155501417971
0.155608666026
0.155729241969
0.155861669921
0.156013451842
0.156191244846
0.156383278186
0.1565812381
0.156778670854
0.156979691771
0.157197701047
0.157438057256
0.157699926368
0.157983430066
0.15828694735
0.158607972578
0.158945436934
0.159299438941
0.159669621532
0.160056231814
0.1604551797
0.16085486878
0.161256065942
0.161660050083
0.162059657465
0.162463971279
0.162875683661
0.163283071965
0.163687618616
0.16410171129
0.164531163306
0.164969119493
0.165407410009
0.165840871151
0.166265480866
0.166678166536
0.167075972557
0.167456176957
0.167816937318
0.168155824756
0.168466895867
0.168743304762
0.16898710109
0.169196397602
0.169365008177
0.16949356263
0.169585649798
0.169646035401
0.16968067611
0.169696023655
0.169696045512
0.169686030846
0.169657389676
0.169594988025
0.169499702113
0.169388352615
0.169279236899
0.169181608474
0.169094803809
0.169014653288
0.168940048105
0.168872827213
0.168812909047
0.168762078054
0.168722735673
0.168695042066
0.168677617466
0.168671261622
0.155026113076
0.155030273964
0.155034482677
0.155045006981
0.155062057883
0.155090776113
0.155133854911
0.155168050231
0.155204769518
0.155252747229
0.155315100756
0.155393198746
0.15548689552
0.155593941587
0.155714671962
0.155852232181
0.156008929617
0.156184466138
0.156369074562
0.156555855261
0.156748619012
0.156952921498
0.157173163819
0.15741384189
0.157676741999
0.157961751471
0.158267256241
0.158590570025
0.158930429462
0.159286311937
0.159658839405
0.160047185813
0.160447805351
0.16085169892
0.161250165769
0.161650407924
0.162054014646
0.162457995741
0.162866019837
0.163276570646
0.163689113028
0.164109342341
0.164540843068
0.164979833883
0.165420041752
0.165856298677
0.166284474132
0.166701218464
0.167103525255
0.167488637185
0.167854010589
0.168196390314
0.168510997477
0.168793404448
0.169041711841
0.169251970444
0.1694204181
0.169547771323
0.16963769301
0.169695279761
0.169726631346
0.169737811275
0.169734499789
0.169722661218
0.169691739661
0.169626550132
0.169523616704
0.169402007239
0.169281737393
0.169174212675
0.169080893169
0.168998066722
0.168922347468
0.168851174898
0.16878731352
0.168736955674
0.168700333563
0.168671638216
0.168651692078
0.168643487634
0.15500519159
0.155005752969
0.155010959352
0.155021746249
0.155040721977
0.155067738638
0.155106757538
0.155144814653
0.155184156826
0.155232808217
0.155294378726
0.155372391625
0.155467045673
0.155579522541
0.155707938788
0.155846865938
0.15599795171
0.156161493516
0.15633540951
0.156519240258
0.156713235318
0.156918595654
0.157140026177
0.157382099812
0.157646467083
0.157933392358
0.158241000136
0.158567237183
0.158910084698
0.159269277395
0.1596440974
0.160036696979
0.160442414999
0.160843438476
0.161241081036
0.161639487758
0.162039223341
0.162444379593
0.162855414045
0.163270871177
0.163690507904
0.164117084206
0.164552464568
0.164994272748
0.165437698637
0.165877916466
0.166310752955
0.166732709437
0.167140725953
0.167531961288
0.167903496406
0.168251799138
0.168572570804
0.168861610104
0.169115027567
0.169328077885
0.169497662974
0.169624791556
0.169713353822
0.169768689927
0.169796901419
0.169804075715
0.169795906611
0.169778277152
0.169739444255
0.169667617193
0.169556067581
0.169421395791
0.169285594495
0.169164749684
0.169063646068
0.168976273968
0.168893114836
0.168813519675
0.168747218242
0.168697571083
0.168659155777
0.168624222142
0.168602292543
0.168594522203
0.154966437775
0.154966104526
0.154975225121
0.154986324792
0.155007268263
0.155036276308
0.15507235708
0.155111195084
0.155154293927
0.155204872577
0.155265226651
0.155344009014
0.155447245823
0.155567850898
0.155696071971
0.155829812509
0.155971883731
0.156126925853
0.156296648515
0.156478755022
0.156670714564
0.156875845421
0.157098717645
0.157342790294
0.157609229504
0.157897728401
0.158208422989
0.158537709241
0.158884828116
0.159247819866
0.159627883084
0.160023222021
0.16042871284
0.160834651598
0.161227970145
0.161620186705
0.162019836115
0.162428139059
0.162843737588
0.163265067711
0.163691774118
0.164125138396
0.164565901329
0.165012238293
0.165460306288
0.165905714084
0.166344363098
0.166772718383
0.167187726785
0.167586526074
0.167966052234
0.168322664943
0.168652062938
0.168949499214
0.169209788448
0.169427788859
0.169600827803
0.169730083623
0.16981942901
0.169874068324
0.169899694878
0.16990234224
0.169887196645
0.169857179228
0.169807338526
0.169720846954
0.169593484218
0.169442410424
0.169288525121
0.16915237697
0.169040553463
0.168941062925
0.168843721141
0.168757392807
0.168689741998
0.168638333237
0.168593183439
0.16855353744
0.168530544841
0.168520754219
0.154907155369
0.154911480999
0.154927097389
0.154943767571
0.154961534079
0.154990700089
0.155028712401
0.15506902589
0.155114993238
0.15516788457
0.155232002886
0.155314013625
0.155424674589
0.155545236877
0.155669584054
0.155795908469
0.155931958589
0.156085158368
0.156253664881
0.156430961843
0.156620063141
0.15682564948
0.157049792998
0.157295233955
0.157563931678
0.157856819619
0.158168722183
0.158502080728
0.158854075867
0.159224969886
0.159609838053
0.160005793044
0.160412620055
0.160812921804
0.161204392118
0.16159568886
0.161997405809
0.162409963003
0.162831064039
0.163258898242
0.163692972075
0.164133739357
0.164581183008
0.165033621772
0.165487784839
0.165939670949
0.166385341935
0.166821351684
0.167244757298
0.167652784877
0.168042369423
0.168409783732
0.168750434425
0.169058852866
0.169328998256
0.169555556234
0.169736028057
0.16987138138
0.169964793628
0.170020334085
0.170042687381
0.170037640564
0.17001052507
0.169962300805
0.169899569354
0.169793294633
0.169639559436
0.169465139324
0.169290424116
0.169134928533
0.169002964068
0.168881817282
0.16877027829
0.16868007574
0.168610638271
0.168554111776
0.168500906753
0.168458976299
0.168435952756
0.168424375233
0.154837453428
0.154846181681
0.154864351791
0.154888923215
0.154908530577
0.154938566732
0.154975475171
0.15501788006
0.155067582489
0.15511865473
0.155189962398
0.155283445607
0.155392705002
0.155510689486
0.155628682693
0.155748225672
0.155883665299
0.156038058837
0.156202061494
0.156374664972
0.156561659293
0.156767358242
0.156992760302
0.157240869043
0.157512902803
0.157808815611
0.158125513019
0.158458659603
0.158819219177
0.159200873599
0.159587216886
0.15998014268
0.160385432117
0.160782230637
0.161170942025
0.161566170277
0.161972432434
0.162390019188
0.162817177853
0.163252116086
0.163694096401
0.164143031481
0.16459838233
0.165058401426
0.165520105554
0.16597979792
0.166433763571
0.166878764917
0.167312087415
0.167731162103
0.168133047819
0.168513971246
0.168869012396
0.169192082986
0.169476638081
0.169717258369
0.16991119268
0.170058257636
0.170159478394
0.170216401189
0.170232448345
0.170213565742
0.170165486418
0.17009369113
0.170007593372
0.169885677226
0.169700886247
0.16949224283
0.169286944341
0.169100938958
0.168937524704
0.168790729278
0.168669057969
0.168576902237
0.168505750631
0.168443057574
0.168386062711
0.168342865201
0.168320793724
0.168310518025
0.154761079933
0.154772586466
0.154791153391
0.154811780299
0.154837233907
0.154874637197
0.154911393367
0.154955020582
0.155011144973
0.155066821993
0.155135863972
0.155237318732
0.155349103262
0.155462140906
0.155574699187
0.155693906753
0.155828885537
0.155980772497
0.156140588434
0.156310643496
0.156496134635
0.156700929411
0.156926053879
0.157175755946
0.157456005358
0.157753503813
0.15807544676
0.1584175809
0.158779993593
0.159162627521
0.159555427999
0.159955297113
0.160347655686
0.160738656976
0.16113151458
0.161532503107
0.161944520933
0.162367982096
0.162801810899
0.163244495282
0.163695105069
0.164153114658
0.164617583728
0.16508661183
0.165557303479
0.166026170476
0.166489766537
0.166945168349
0.167389997762
0.167822023418
0.168238582098
0.168636031123
0.169009303717
0.169352019744
0.169657444753
0.169919957223
0.170135692745
0.170301411068
0.170413784957
0.17047123245
0.17047747753
0.17044025194
0.170365929508
0.170259750143
0.170129169759
0.169977184771
0.169772854223
0.169520747602
0.169270370373
0.169038512558
0.168832415247
0.168660189522
0.168532511281
0.168442128519
0.16837276916
0.168308591831
0.168250610298
0.168207148549
0.168185287532
0.168177091646
0.15467693573
0.154690402581
0.154712083757
0.154732074562
0.154759327847
0.154797263538
0.154835434253
0.154879110651
0.1549345404
0.15500443118
0.155077879386
0.1551793389
0.155291814029
0.155400975942
0.155508217962
0.155629952052
0.155768191857
0.155915196583
0.156069942906
0.156237904032
0.15642317066
0.156628074362
0.156853310617
0.157101638792
0.157388544804
0.157695074461
0.158013126616
0.158363930644
0.158732030035
0.159120005023
0.1595158172
0.159912920809
0.160303697932
0.160690635887
0.161086997451
0.161494482461
0.161913237524
0.162343488816
0.162784708486
0.163235822622
0.163695886564
0.164164015958
0.164638874802
0.165118339766
0.165599489406
0.166078963906
0.166553591502
0.167020837612
0.167478767743
0.167925625222
0.168359279384
0.168776541851
0.169172672626
0.169541506314
0.169876457458
0.170171460798
0.170419815261
0.170611598877
0.170737373797
0.170795546413
0.170792508243
0.170736268932
0.17062943565
0.170474907873
0.170280722911
0.170061301699
0.169824484269
0.16954650507
0.169228522397
0.168929255294
0.168671762188
0.168476082671
0.168347769161
0.168268731937
0.16821226845
0.168154310591
0.16809242217
0.168044983221
0.168020144194
0.168011587984
0.154581425654
0.154594364957
0.154617798
0.154642212088
0.154676528816
0.154709386477
0.154747761784
0.154793308294
0.154841875484
0.154918777784
0.155004191531
0.155106078661
0.155218622979
0.155327553957
0.155433733247
0.155555748089
0.155695292811
0.155839161281
0.155990131507
0.156155171138
0.156339831727
0.156546390852
0.156776358353
0.157024661596
0.157306307498
0.157627146796
0.157954090094
0.15830469865
0.158674708355
0.159056479004
0.159460911888
0.159860430866
0.160248109261
0.160636381841
0.161037726017
0.161451997344
0.161878176381
0.162316154707
0.162765627039
0.163225923476
0.163696314844
0.164175704512
0.16466232559
0.165153728762
0.165646871491
0.166138469635
0.166625612074
0.167106165929
0.167578684892
0.168042076642
0.168495066257
0.168935533205
0.169359806314
0.169762743093
0.170138371568
0.17047950567
0.170773206088
0.170997038171
0.171140903521
0.171208891062
0.171206309535
0.171133927682
0.170986528242
0.170766993646
0.170489589086
0.170172437908
0.16984170038
0.16950989695
0.169148877895
0.168751178375
0.168430341853
0.168210919634
0.168093756609
0.168048255456
0.168030787081
0.167986846116
0.167904894187
0.167840467115
0.167811498221
0.167802264129
0.1544718627
0.154481973164
0.154499919497
0.15453146116
0.154575012177
0.154607503671
0.154646490455
0.154696892743
0.154743961567
0.154817403061
0.154911930867
0.155016408393
0.155128208718
0.155238333789
0.155350228928
0.155474058713
0.155611872391
0.155752569203
0.155901118161
0.156063346912
0.156244707846
0.156449158902
0.156688109815
0.156948264509
0.157224667681
0.157545777743
0.157881744991
0.158229442155
0.158611240297
0.158999348272
0.15939505313
0.159788900592
0.160177750275
0.160574366046
0.160982863929
0.161404489628
0.161838790492
0.162285470097
0.162744245755
0.163214632071
0.163696250488
0.164188104739
0.164688004962
0.16519298423
0.165699778304
0.166205150184
0.166706404155
0.167201712394
0.167690098937
0.168171250771
0.168645266228
0.169111934123
0.169569974834
0.170016469429
0.170446191335
0.170849346974
0.171201437586
0.171463545021
0.171642667301
0.171748570131
0.171771186619
0.171688105155
0.171487487671
0.17117890715
0.17078998835
0.170343279434
0.169867408749
0.16941604062
0.168950416282
0.168458910931
0.168061470041
0.167815039109
0.167731001873
0.167767753466
0.167847929627
0.167830212148
0.167678533927
0.167571024447
0.167550855663
0.167551477868
0.154347925799
0.154355430232
0.154365314615
0.154400880159
0.15444478249
0.154483673497
0.154525868259
0.154581663843
0.154634805949
0.154706806975
0.154805007817
0.154910968083
0.155021462289
0.155129341948
0.155248794921
0.155380863822
0.155517009964
0.155654956621
0.15580208336
0.155962875674
0.156140729341
0.156339122966
0.156577718394
0.156858738642
0.157141868164
0.157451085586
0.15779990908
0.158154271505
0.158527305563
0.158920456206
0.159317924056
0.159709338188
0.160099903594
0.160503956451
0.160920950438
0.161351087298
0.161794347789
0.162250606416
0.162719896413
0.163201710585
0.163695690322
0.164201191582
0.164715938668
0.165236344911
0.165758684327
0.166279699196
0.166796828951
0.167308352862
0.167813493068
0.168312779916
0.16880819331
0.169302908865
0.169800095875
0.170300533061
0.170798471373
0.171278659932
0.171705776355
0.172016231193
0.172273436285
0.172488385599
0.172588968523
0.172501899978
0.172224802225
0.171790284528
0.171251304686
0.170623921277
0.169931749619
0.169266760398
0.168623918776
0.167983457363
0.167514163985
0.167221652063
0.167211492293
0.167419696777
0.167732946306
0.167769830584
0.167388281392
0.167180418763
0.167228377847
0.167266675064
0.154210562777
0.15421924004
0.154233727348
0.154259272426
0.154298023495
0.154341060501
0.154387430384
0.154445766248
0.154509196043
0.154582582864
0.154683312199
0.154790428742
0.154900697133
0.155007218526
0.155127637552
0.155267317069
0.155405955939
0.155544431756
0.155691516526
0.155852051954
0.156028305324
0.156221772504
0.156455535976
0.156747274438
0.157045807194
0.157352753757
0.157705795219
0.158068848601
0.158437637877
0.158828794147
0.159219736987
0.159610479496
0.160011316003
0.16042475457
0.160850986022
0.161290629765
0.161744124571
0.162211075438
0.162691738071
0.163186316617
0.163694350959
0.164215066665
0.164746306073
0.165284113917
0.165824191946
0.166363088997
0.166898211988
0.167427480374
0.167949746505
0.168466035677
0.168980802834
0.169502840798
0.170043281062
0.170608476476
0.171184229637
0.171748964623
0.172302850196
0.17269025515
0.173168016506
0.173673334692
0.173917010045
0.173723040225
0.173184350384
0.172470975679
0.171720647198
0.1709636152
0.170101018095
0.16913501017
0.1681898073
0.167376664576
0.166613174246
0.166129070272
0.166261182132
0.166835352058
0.167792967414
0.167985129086
0.166974364496
0.166543837027
0.166852839586
0.16697424575
0.154056178582
0.154065978542
0.154089233472
0.154105682687
0.154138343192
0.154182461156
0.154232165351
0.154294472008
0.154370354711
0.154444453711
0.154546430568
0.154654887005
0.154766145473
0.15487428502
0.154995608655
0.155138254792
0.155279525983
0.155420357299
0.155568734395
0.155729566419
0.15590557574
0.156097604328
0.156323274563
0.156611729081
0.156934199321
0.1572493705
0.157590822037
0.157970781824
0.158349134671
0.158723089899
0.159107392795
0.159502614587
0.159911920573
0.16033515058
0.160771778986
0.161222128076
0.16168668589
0.162165742312
0.162659312039
0.163167789118
0.163691471861
0.164229461372
0.164779319218
0.165336775407
0.165897093741
0.166456605297
0.167012421839
0.167561419245
0.168100730696
0.168630537219
0.169158151187
0.16970188012
0.170287296912
0.170930003568
0.171576939455
0.172239947531
0.173105379287
0.173229627569
0.173094501569
0.173276452421
0.173463140589
0.173294070564
0.172807319019
0.172146864584
0.171399028198
0.170589652496
0.169721129483
0.168829263065
0.167964037296
0.167184885114
0.166586153372
0.166387278641
0.166723597892
0.167640011627
0.169384840173
0.169926865338
0.165862430038
0.164649936855
0.166414105761
0.166764741612
0.153881526056
0.153890625859
0.153912286587
0.153930548219
0.153960807526
0.154006249561
0.154057604621
0.154119686105
0.154207351207
0.154289971095
0.154392806924
0.154503307637
0.15461699579
0.15472920031
0.154853000428
0.154996530555
0.155139527831
0.155283274151
0.155433697391
0.155595347794
0.155771268658
0.155963467789
0.156184007342
0.156464889606
0.156801861589
0.157134010785
0.157467933794
0.157841361674
0.158230326706
0.158609076581
0.158988809817
0.159385650793
0.159802002255
0.160235116688
0.160682683969
0.161144371512
0.161621096646
0.162113248133
0.162621258474
0.163145402917
0.163686373525
0.1642437854
0.164814929993
0.165394846868
0.165978263086
0.166561760276
0.167142401582
0.167714620242
0.168270435077
0.168806624252
0.169333091214
0.169882330498
0.170508226358
0.171247950717
0.171912924061
0.172366510108
0.17273499478
0.173077940801
0.173154064561
0.173155873203
0.173173899101
0.172965116649
0.172491125149
0.171837652791
0.171075652548
0.170242316806
0.16936053108
0.168462013468
0.167601343852
0.16682883158
0.166228970707
0.165943795279
0.166058247039
0.166524279531
0.167121531295
0.166365088972
0.165692230671
0.166965630976
0.167952162286
0.166847768717
0.153688558912
0.153696816564
0.153719114352
0.153737578436
0.153767999435
0.15381373925
0.153866286985
0.153925381578
0.154014502973
0.154110818897
0.154219022883
0.154333029243
0.154450718592
0.154570510968
0.154697326181
0.15484158525
0.154986185269
0.155133349164
0.155286302181
0.155449321228
0.155625450432
0.155817358517
0.156034494889
0.156306419088
0.156643266513
0.15700187141
0.157344531057
0.157705364572
0.158088855975
0.15846882851
0.158851159936
0.159255103195
0.159679906516
0.160123015777
0.160582120482
0.161056357888
0.16154611957
0.162052553218
0.162576261268
0.16311789824
0.163678129444
0.164257042001
0.164852476138
0.165458750797
0.166069287259
0.166680994969
0.167291827836
0.167892698057
0.16846614149
0.168999486941
0.169498531887
0.170015502631
0.170672325357
0.171660727687
0.171884615552
0.172152535874
0.17250182737
0.172761268698
0.172808518277
0.172735132314
0.172603310936
0.172307174369
0.171800065737
0.171122464459
0.170327464138
0.169452198489
0.168525746954
0.167582888692
0.166670841776
0.165845908169
0.165154337584
0.164678317812
0.164485859105
0.164516880098
0.164627476299
0.164545506982
0.164801568202
0.165803160095
0.167070257043
0.169522458779
0.15347947213
0.153486248353
0.153504473759
0.153525531245
0.153560338956
0.153606376968
0.153661495353
0.153719451585
0.153807371246
0.153911791769
0.154024823429
0.15414191703
0.154262292445
0.154392416433
0.154525465421
0.154670549757
0.154817326509
0.154969296959
0.155125664923
0.155290727573
0.155467572706
0.155658974428
0.155873449958
0.156137888274
0.156469774896
0.156844800425
0.157207039348
0.157563669676
0.157935718696
0.15831150325
0.158698331239
0.159109287952
0.159542830154
0.159995903912
0.160467186454
0.16095555734
0.161460179667
0.161981917979
0.162522904598
0.163083590451
0.163665107646
0.164268423671
0.164891722818
0.165528613769
0.166169976667
0.166815471732
0.16747011342
0.168116947392
0.168711936491
0.16923122056
0.169650444458
0.170016739821
0.170568151573
0.171197185774
0.171665137351
0.171922173351
0.172148987083
0.172295344813
0.172290906272
0.172151447554
0.171900787908
0.171503977387
0.170933431072
0.170206571186
0.169359638134
0.168425726893
0.167434479665
0.166418620059
0.165417121346
0.164475201762
0.163608977106
0.162860222582
0.16228911071
0.161880843702
0.161591843588
0.161387654736
0.161495150792
0.162559040159
0.165375720221
0.167828595613
0.153257011469
0.153262564573
0.153275705666
0.153299891959
0.153338439049
0.153384463261
0.153441447763
0.153502323004
0.153586760395
0.153695197451
0.153811261878
0.153930394378
0.154051117024
0.154186684451
0.154331296795
0.15447975259
0.154629404485
0.154786956135
0.154949160553
0.155117836734
0.155296639533
0.155487476082
0.155699885804
0.155957987383
0.156279981797
0.156653161246
0.15703633053
0.157403919772
0.157772809149
0.158146012228
0.158532034777
0.158948089368
0.159390194527
0.159851500639
0.160336166341
0.160840014321
0.16135971649
0.161898545363
0.162458677543
0.163041030349
0.163646172438
0.164275637507
0.164929272951
0.165603497896
0.166292582226
0.166995312176
0.167708576127
0.168402544221
0.16903446135
0.169571705641
0.169850483381
0.169802469038
0.170357746133
0.170770966327
0.171266871935
0.171529525657
0.17165948105
0.171692135512
0.171593238955
0.171354678216
0.170984685677
0.17047363838
0.169809423661
0.169000519398
0.168070559803
0.167045791836
0.165951669689
0.164814890881
0.163664440624
0.162531105629
0.161422304465
0.160329948002
0.159281050495
0.158276294828
0.157273528738
0.156237951983
0.155296453026
0.154705649099
0.154347670611
0.152776819736
0.153022135268
0.153027357297
0.153038899059
0.153066573482
0.153104903419
0.153149015632
0.153203773845
0.153269289274
0.153350088057
0.153460274147
0.153578628995
0.15369971225
0.153821750205
0.153957929346
0.154112271076
0.154267384541
0.154421656503
0.154584040733
0.154752781973
0.154927472138
0.155110819885
0.155301909098
0.155512613531
0.155766097503
0.156078522559
0.156444650444
0.156836333043
0.157217550587
0.15758409054
0.157955719383
0.158348401197
0.158767319301
0.159215689539
0.159688032795
0.16018671614
0.160706026763
0.161242210447
0.161799598536
0.162380453344
0.162986262252
0.163617880785
0.164277334575
0.164968817404
0.165696437337
0.166452311895
0.167216933982
0.167985707394
0.168748133922
0.169493744468
0.170209494022
0.170460456386
0.170092890698
0.170138818887
0.170547027258
0.17088045074
0.171027507498
0.171041453914
0.170945339473
0.170722728204
0.170363310486
0.169867544047
0.169232447391
0.16845391621
0.167537273697
0.166497523605
0.165353262506
0.164123154002
0.16282540991
0.161477050736
0.160090678565
0.158671097858
0.157154701451
0.155504609714
0.153702459356
0.151649058902
0.149192485474
0.146195037315
0.14255532662
0.138365286436
0.138488672436
0.152772235244
0.15277758331
0.152789633914
0.152821446555
0.152858965636
0.152900611131
0.152951034086
0.153019388208
0.153095129526
0.153205532826
0.153326220779
0.153449406586
0.153573782828
0.153711981553
0.15387154619
0.154033477273
0.154193925224
0.15436155408
0.15453549801
0.154716719611
0.154907171105
0.155100483199
0.155309578456
0.15555968616
0.15586395463
0.156221114412
0.156613314046
0.157002773131
0.157379185294
0.157751041832
0.158148265186
0.158572869275
0.159024000835
0.15950010192
0.160009377649
0.160547982202
0.161104400545
0.161682633127
0.162285296799
0.162915839197
0.163576990489
0.164271962928
0.16501363462
0.165808671881
0.166627256944
0.167446446218
0.168283817777
0.169176260979
0.170177175535
0.171663530079
0.170729727742
0.170362694065
0.170247517189
0.170363192441
0.170449756814
0.170429427595
0.170298433132
0.170054961023
0.169687657211
0.169187603545
0.168551782923
0.167778195485
0.166865399865
0.165816453893
0.16463972328
0.163345987271
0.161945569267
0.160446627121
0.158853281913
0.157162026314
0.155360667869
0.15335738122
0.151019964869
0.148257988773
0.1448683338
0.140439054648
0.134198955134
0.124469540974
0.106222514022
0.0615282529875
0.152501399172
0.152506796491
0.152521145845
0.15255772491
0.152595101591
0.152634942401
0.152683175407
0.152751394298
0.152821665774
0.152930166219
0.153052905177
0.153178140336
0.153304907933
0.153445171424
0.153607999751
0.153776107986
0.153944713016
0.154118324871
0.15429657865
0.154483529944
0.154682473362
0.154880896656
0.155088272904
0.155335434168
0.155633616843
0.155980841728
0.156367101955
0.15675440249
0.157143748357
0.1575296806
0.157928392875
0.158352640544
0.158811041149
0.159298447121
0.159810850491
0.16036142225
0.160939839807
0.16154134877
0.162169911671
0.162827413525
0.163519229701
0.164259430909
0.165069073079
0.165932862204
0.166803511221
0.167679427856
0.168618428619
0.1696592845
0.170903071402
0.17111268619
0.171142259831
0.170533807656
0.170198416229
0.170069728121
0.16993866896
0.169732195984
0.16943013682
0.169020321516
0.168491289572
0.167834413009
0.167044803059
0.166119426092
0.165056288256
0.163855519934
0.162519582923
0.161051554437
0.159452732731
0.157720262808
0.15584416818
0.153802667873
0.151554397687
0.149029618729
0.146010999014
0.142245864424
0.137449891189
0.131012770394
0.12174400916
0.107326027258
0.0830180177889
0.0425528768206
0.152201364449
0.152206804794
0.152223406487
0.152264749183
0.152301767778
0.152342969587
0.152390726749
0.152456810228
0.152524638183
0.152632417071
0.152757262802
0.15288439768
0.153013355823
0.153155143228
0.153319486353
0.15349150745
0.153670073414
0.153851118886
0.154033928433
0.154225883109
0.154432686609
0.154640267125
0.154847194381
0.155090134281
0.155384168902
0.15572279585
0.156101080214
0.156482344058
0.156872122554
0.157275801653
0.157690380374
0.158117490547
0.158567597828
0.159060348007
0.159588639789
0.160150183407
0.160746440126
0.161371384034
0.162026642432
0.162714916706
0.163445895416
0.164248398973
0.165133731622
0.166057846496
0.166991127765
0.167967067064
0.169092035768
0.170426246447
0.170681853086
0.170807553312
0.170693385187
0.170285493876
0.169915435346
0.169612698526
0.169289705786
0.16889744757
0.168415462297
0.167830198216
0.167130354732
0.166307183178
0.165354447287
0.164267393861
0.163041974984
0.161674779307
0.160162647156
0.158501252931
0.156682911818
0.154693876662
0.152510750098
0.150095238279
0.147386009378
0.144289905403
0.140612219347
0.135980425275
0.12998167757
0.122014779973
0.110975674358
0.0950485215989
0.071042609242
0.038012919754
0.151865335495
0.151872612485
0.151890095983
0.151930768679
0.151970652147
0.152018234722
0.152069222561
0.152135960602
0.152208058751
0.152311324668
0.152437583987
0.152566553544
0.152697663547
0.152840660286
0.153005318051
0.153177660327
0.153362322297
0.153553959416
0.153744019078
0.153942151376
0.154154842884
0.154374451713
0.154588790302
0.154823729277
0.155113415789
0.155445393955
0.155815574906
0.156191247369
0.156575511144
0.156986867306
0.157418313653
0.157860507349
0.158311638021
0.158798300442
0.159329959475
0.159906350596
0.16052191131
0.161171222991
0.161852830343
0.162574867162
0.163361917189
0.164242147253
0.165199126536
0.166190555956
0.167223875837
0.16834525853
0.169802937035
0.17014611368
0.170271297422
0.17030815262
0.170180396069
0.169845827193
0.169419613038
0.168966978597
0.168469540634
0.167899280521
0.167239404137
0.166478146231
0.16560541157
0.164612581015
0.163492365297
0.162238141856
0.160843255924
0.159300500394
0.157601365937
0.155734626966
0.153684202832
0.151426280279
0.148925400076
0.146128879591
0.1429586962
0.139299494534
0.134985514445
0.129675123742
0.122827359581
0.113820747929
0.101803395982
0.0854469357724
0.0623977786318
0.0333356738276
0.151497846306
0.151508371533
0.151525825643
0.151560253723
0.151605922267
0.151660228257
0.151717089115
0.151788560722
0.151870231611
0.151968124386
0.152093097553
0.152223190111
0.152356497563
0.1525008669
0.152666044928
0.152839058347
0.153024318485
0.15322493428
0.153424996011
0.153631699967
0.153850197333
0.154081352629
0.154312450796
0.154549711632
0.154826292458
0.155150156338
0.155512062127
0.155882428674
0.156259283715
0.156669170305
0.157108193719
0.15757031785
0.158034039313
0.158517282493
0.159044940588