/*--------------------------------*- C++ -*----------------------------------*\
| =========                 |                                                 |
| \\      /  F ield         | OpenFOAM: The Open Source CFD Toolbox           |
|  \\    /   O peration     | Version:  v1806                                 |
|   \\  /    A nd           | Web:      www.OpenFOAM.com                      |
|    \\/     M anipulation  |                                                 |
\*---------------------------------------------------------------------------*/
FoamFile
{
    version     2.0;
    format      ascii;
    class       volScalarField;
    location    "801";
    object      p;
}
// * * * * * * * * * * * * * * * * * * * * * * * * * * * * * * * * * * * * * //

dimensions      [0 2 -2 0 0 0 0];


internalField   nonuniform List<scalar> 
6400
(
0.144117595152
0.144120915594
0.144130434822
0.144149151358
0.144177195688
0.144214591564
0.144261302862
0.144318430806
0.14438717562
0.144469488835
0.144571740462
0.144697348837
0.144843794588
0.145010985788
0.14520087311
0.145416139826
0.145658693324
0.145928663756
0.146223874321
0.146538868344
0.146868262524
0.147213892393
0.147583605361
0.147985477938
0.148424427857
0.148900346036
0.149409795205
0.14995008825
0.150520673077
0.151122036654
0.15175444318
0.152415799765
0.153100073775
0.153801091733
0.154515874876
0.155241819142
0.155979351229
0.1567338093
0.157503616657
0.158280153171
0.159063940827
0.159866096328
0.160692010533
0.161533569053
0.162379434114
0.163221347085
0.164052954747
0.164869169621
0.165665304676
0.166437182533
0.167181178583
0.16789150836
0.168558870415
0.169172348791
0.169729141082
0.17023231689
0.17067732838
0.17105502251
0.171363168414
0.17160859792
0.171797995061
0.171935805772
0.172027289382
0.172088977565
0.17214096093
0.172196350498
0.172251259992
0.172292596225
0.172315337035
0.17232308271
0.172320048148
0.172308878362
0.172291128726
0.172269677045
0.172245689237
0.17222141615
0.172198670114
0.172182548464
0.172171549999
0.172166792364
0.144112808214
0.144116353525
0.144125054979
0.144143328534
0.144172858289
0.144211696124
0.144258876308
0.144314251701
0.144380950185
0.144463004748
0.14456489936
0.144689509016
0.144836245503
0.145004361942
0.145194390568
0.145408292937
0.145650052
0.14592065699
0.14621711031
0.146532556276
0.146860046766
0.147203650577
0.147572831048
0.14797479907
0.148414250265
0.148890915923
0.149400740421
0.149941665214
0.150513201238
0.151115322557
0.151747908597
0.152409750922
0.153094992884
0.153796177465
0.154511093853
0.155237356434
0.155974941262
0.156729997494
0.157501056
0.158278677805
0.159062368295
0.159865362328
0.160694337072
0.161538258331
0.162385446212
0.163228813137
0.164061991784
0.164880080186
0.16567803025
0.166450591481
0.167194098427
0.167905554286
0.168577004953
0.169192599304
0.169751022395
0.170256594418
0.170700356424
0.171075460281
0.17138299446
0.171627380105
0.17181413534
0.171950878533
0.172042670193
0.172105609333
0.17215921747
0.172215266449
0.172269995444
0.172308724104
0.172328356122
0.172333515391
0.172328219171
0.172314898526
0.172294699835
0.172270259735
0.172244294451
0.172218779133
0.172196215457
0.172179368607
0.172168032734
0.172164097841
0.144099254108
0.144105066434
0.144113056471
0.144129914542
0.144158469112
0.144201449744
0.144252180443
0.144305991047
0.144369648947
0.144449993515
0.144551038086
0.144675110559
0.144822154401
0.144991097441
0.145181171137
0.145391745926
0.14563109784
0.145906059642
0.146205385636
0.146519383388
0.146842821356
0.147181557413
0.147549909882
0.14795414236
0.148394601269
0.148871304638
0.149382363837
0.149925099358
0.150498245994
0.151101705197
0.151735196102
0.152398182162
0.153085453281
0.153786542075
0.154500516418
0.155228369587
0.155966526164
0.156721352297
0.157493939499
0.158274957902
0.159064586737
0.159872237714
0.160701966791
0.16154643272
0.162395472819
0.163241316395
0.164077684531
0.16489921222
0.165700764844
0.166477488274
0.167225197151
0.16793880117
0.168609615818
0.169228596491
0.169793667242
0.170301121726
0.170743175975
0.171116529151
0.171422398999
0.171664716091
0.171849528493
0.171983427216
0.172074845436
0.172141834051
0.172201642857
0.172259489644
0.172308954183
0.172341218599
0.172355508806
0.172355750572
0.17234569413
0.17232715058
0.172301907313
0.172273023155
0.172243297243
0.172215144544
0.172191205296
0.172173079682
0.172161396389
0.172156961013
0.144079615991
0.144085633907
0.144092641143
0.144108253022
0.144133515354
0.144176454853
0.144239697159
0.144293775045
0.144352885899
0.144430253167
0.144529866633
0.144653643814
0.14480138567
0.144970433284
0.145160377013
0.145374819058
0.145617947478
0.145890082032
0.14618116338
0.146484468475
0.14680416519
0.14714646605
0.147517359636
0.147922430462
0.148364102542
0.148842322207
0.149355286529
0.149900261386
0.150475728524
0.151081090628
0.151716636929
0.152381277028
0.153070246774
0.153774160226
0.154486250747
0.155211968156
0.155953529044
0.156709627176
0.157481811207
0.158267335548
0.159065045443
0.159879342609
0.160712480714
0.161559360103
0.162411546675
0.163261357472
0.164102316438
0.164928791895
0.1657355606
0.166517682917
0.167270337249
0.167987730522
0.168662271976
0.169286767127
0.169856470191
0.170365469833
0.170807293415
0.171179354009
0.171483092319
0.171722659861
0.171904405973
0.172036636652
0.172131992932
0.172207420005
0.172272175047
0.172326506357
0.17236960862
0.172394014706
0.172399495809
0.172391190176
0.172373096088
0.172346750943
0.172314128553
0.172277661516
0.172240700369
0.172208330679
0.17218239405
0.172160803828
0.172145664037
0.172139371998
0.14404870022
0.144050294169
0.144058889321
0.144075026989
0.144103111914
0.144143895228
0.144202389583
0.144261131656
0.14432379953
0.144401726175
0.144500224369
0.144623934303
0.144772976374
0.144947410464
0.145144611332
0.145359615995
0.145595711835
0.145854901335
0.14613539852
0.146435968857
0.146757020635
0.147100952049
0.14747361786
0.147880482287
0.148323856789
0.148804007732
0.149319095758
0.149866890138
0.150445366315
0.151053793889
0.151691544295
0.152359620164
0.153052437747
0.153754818412
0.154466209536
0.155191279566
0.155931971454
0.156690933166
0.157467560285
0.158259330777
0.159065200953
0.159887046667
0.160725577117
0.161576821058
0.162433738312
0.163289007522
0.164136036655
0.164968986511
0.165782512079
0.166571510069
0.167330738751
0.168054148547
0.168734720722
0.169365560582
0.169940269809
0.170451815138
0.170894266726
0.171265594308
0.17156759418
0.171805035772
0.171985519461
0.172119725463
0.172221919123
0.172304317341
0.172368358289
0.172419285476
0.172455858966
0.172470207136
0.172463069601
0.172441541317
0.172411079746
0.172373433235
0.172329429594
0.172281000898
0.172234738582
0.172195879462
0.172163321188
0.172133460936
0.172114294969
0.172107233868
0.1439929312
0.143993446435
0.144007170587
0.144024191124
0.144055492964
0.144098848581
0.144154022113
0.144213700651
0.144281530861
0.144361971632
0.144459202674
0.144583582353
0.144741564834
0.144924846985
0.145121375973
0.145330158551
0.145556352997
0.145806474664
0.146082035589
0.146380449757
0.146699907461
0.147044290204
0.1474189608
0.147828228751
0.148273931311
0.148755933479
0.149273861298
0.149824727795
0.150407300565
0.151019603941
0.151661732296
0.152332035292
0.15302507263
0.153730979627
0.154440088775
0.155162172379
0.1559047618
0.156668481835
0.157451205093
0.158250443137
0.159065017305
0.159895366761
0.160741100741
0.161598721149
0.162462147133
0.163324489642
0.164179153237
0.165020159379
0.165842046193
0.166639558373
0.16740720738
0.168138825432
0.168827501135
0.169465960536
0.170046646873
0.170562018605
0.171006618942
0.17137894509
0.171681344914
0.171919566485
0.172102608041
0.172242482492
0.172352648516
0.17243659223
0.172498472616
0.172544313281
0.172572754188
0.172574285457
0.172549969072
0.172509592082
0.172461858846
0.172408092768
0.172347074191
0.172282714859
0.17222349881
0.17217330419
0.172128522899
0.172089443508
0.172066324977
0.17205654562
0.143908192839
0.14391498443
0.143936942313
0.14396175253
0.14398958635
0.144033879808
0.144091145119
0.144153584713
0.144225414722
0.144309062129
0.14441072952
0.144539363218
0.144705379502
0.144888027158
0.145080010397
0.145280834617
0.145500749911
0.145748307095
0.146021691717
0.146315253795
0.14663213592
0.146977333137
0.147353828316
0.147765097764
0.14821351585
0.148699535612
0.149219076552
0.14977357563
0.150361082028
0.150980427136
0.151626815811
0.152297724827
0.15299176934
0.153694314
0.154403413505
0.155126880225
0.155873298119
0.15664289404
0.157432832776
0.158240488518
0.159064496262
0.159904408371
0.160759042551
0.161625020584
0.162496849131
0.163368018606
0.164232005866
0.165082771136
0.165914774411
0.166722652221
0.167500760135
0.168242787479
0.168941608588
0.169589370045
0.170177793883
0.170699280171
0.171148942688
0.171525880947
0.171832992432
0.172076621354
0.172266403168
0.172413973973
0.17252848807
0.172612017454
0.172676352348
0.172716185725
0.172728302031
0.172709085164
0.172661584144
0.172597385844
0.172527023498
0.172451220594
0.172367396099
0.172282160406
0.172203566588
0.172134541324
0.172072992759
0.172025651263
0.171999281705
0.171987076845
0.143807598584
0.143820424171
0.143845433864
0.143880392677
0.143911284355
0.143957857191
0.14401392928
0.144079803541
0.144156719825
0.144238865445
0.144349565233
0.144491500306
0.144656142036
0.144835467126
0.145020844203
0.145214721578
0.145433746913
0.145681738054
0.145950414931
0.146239175952
0.146554075669
0.146899606668
0.147277735036
0.147692049875
0.148144118299
0.148633496013
0.14915727914
0.149712457881
0.150307275517
0.150936094075
0.151584811631
0.152253736725
0.152946394869
0.153647648225
0.154356815796
0.155085453427
0.155837990537
0.156614386822
0.157412329848
0.158229282804
0.15906361783
0.15991426432
0.160779459019
0.161655751984
0.162537956665
0.16341984755
0.164295015694
0.165157429781
0.166001515969
0.166821837244
0.167612626597
0.168367384432
0.169078647052
0.169738072087
0.170337120845
0.17086857253
0.171328245056
0.171715547802
0.172032939747
0.172286152688
0.172484481301
0.172637876572
0.172754096976
0.172839786729
0.172902061902
0.172939887285
0.172930025615
0.172880613853
0.172802513495
0.172708108792
0.172608748141
0.172504153616
0.172391983518
0.172277855624
0.172169139543
0.172072417268
0.171993784796
0.171939859383
0.171912558685
0.171901011157
0.143696230731
0.143712578219
0.143738135918
0.143769035694
0.143807679716
0.143863227409
0.143920322715
0.143988516563
0.144074182116
0.144162470266
0.144271802611
0.144423069174
0.144590930395
0.144764948947
0.144944611479
0.145138412428
0.145357071043
0.145602235958
0.145866540269
0.146152637469
0.146466197207
0.146811272881
0.147189559172
0.14760601924
0.148065678497
0.148557399705
0.149085905774
0.149648976905
0.150246027887
0.150876872409
0.151531640623
0.152206256232
0.152890220467
0.153588191964
0.1543026906
0.155038545123
0.155798521398
0.15658273082
0.157389520458
0.158216662438
0.159062344641
0.159925007733
0.160802428057
0.161690994398
0.162585630944
0.16348029638
0.164368715656
0.165244917324
0.166103320865
0.166938430201
0.167744372963
0.168514470585
0.169240996537
0.169915436112
0.170529528696
0.171076831156
0.171553671386
0.171958513636
0.172291247318
0.172556411762
0.172764526493
0.172924353159
0.173043017179
0.173125533267
0.173175569317
0.173203949468
0.173186585049
0.173098561023
0.17297983826
0.17284645039
0.172709401703
0.172569932168
0.172424010921
0.172268589775
0.172112018955
0.171978416358
0.171884583465
0.171829075378
0.171803955006
0.171795885948
0.143572202687
0.143590727875
0.14362046237
0.143650552003
0.143692410115
0.143748708462
0.143808689403
0.143877606093
0.1439643619
0.144070316973
0.144185504677
0.144337595295
0.144506835698
0.144677657707
0.144852041498
0.145048909106
0.145270989488
0.145511437468
0.145770495487
0.146054354448
0.14636776021
0.146713584843
0.147092496712
0.14750815169
0.147974431385
0.148474947931
0.149001436575
0.149571509559
0.150174279987
0.150809888237
0.151468433906
0.152141984529
0.152825819549
0.153522436696
0.154241909161
0.154985897892
0.155754508135
0.156547633715
0.157364209726
0.158202467722
0.159060593245
0.159936659215
0.160828024093
0.161730856253
0.162640080242
0.163549767304
0.164453773954
0.165346214963
0.166221509283
0.167074097318
0.167898029614
0.168686554706
0.16943195403
0.170126051851
0.170761467503
0.171332729329
0.171835728699
0.17226545357
0.172616928417
0.172896600341
0.173121403367
0.173293581605
0.173414506882
0.173484648955
0.17350922487
0.173500447699
0.1734638596
0.173372354106
0.173200882157
0.173012807682
0.172829255843
0.172653874274
0.172471286403
0.172255230364
0.172018214051
0.171834878836
0.171730554927
0.17168285416
0.171664605298
0.17166251372
0.143430092887
0.143447748956
0.143480241499
0.143515772605
0.143566559033
0.143618042154
0.143679324902
0.143751330451
0.14383112818
0.143947101946
0.144077435327
0.144230885912
0.144400988157
0.144573074315
0.144747233805
0.144945343505
0.1451692679
0.145407005863
0.145662273299
0.145943078726
0.146255710199
0.146603812325
0.146988183935
0.147404290595
0.147866680638
0.148380010454
0.148915390485
0.149485962301
0.150091100003
0.150723122436
0.151388871993
0.152066238222
0.152749453437
0.153449158419
0.154175082026
0.154927594648
0.155705649105
0.156508779629
0.157336194594
0.158186558571
0.159058262904
0.159949185073
0.160856287927
0.161775456305
0.162701550031
0.163628731287
0.164550994292
0.165462529664
0.166357723024
0.167230935851
0.168076201768
0.168886910214
0.16965580914
0.170375744536
0.171040762365
0.17164601021
0.172184898117
0.172646663656
0.173020773772
0.173322144886
0.173584368025
0.173781353944
0.173903608112
0.17394852711
0.173926008106
0.173852811436
0.173752332996
0.17364667839
0.173464037616
0.173209795082
0.172968109437
0.172764819925
0.172556222896
0.172249044298
0.171859134985
0.171601651227
0.171502553724
0.171484767915
0.171484734346
0.171497136068
0.143265679019
0.143279836892
0.143306290712
0.143351245117
0.143413223149
0.143465950333
0.143529201554
0.143608434037
0.143687399358
0.143800742017
0.143942921921
0.144100756708
0.144271252576
0.144446370332
0.144628314956
0.144829819868
0.145053018083
0.145288297123
0.14554154017
0.145819584529
0.146128767673
0.14647530479
0.146869496818
0.147297696931
0.147755733065
0.148269691461
0.148814241188
0.149384001175
0.149998717362
0.150636794183
0.151296446009
0.151971557527
0.152658407527
0.153367087955
0.154101667198
0.154863341752
0.155651589133
0.156465791345
0.157305222201
0.158168802201
0.159055245753
0.159962506197
0.160887221631
0.161824899834
0.162770298326
0.163717710598
0.164661298363
0.165595288539
0.166513952388
0.167411533842
0.16828213848
0.169119626473
0.169917862958
0.170671474588
0.171376022332
0.172025734554
0.172610112502
0.173116391511
0.173520950796
0.173853204964
0.174206702711
0.174454493332
0.17457980391
0.174583292826
0.174487690755
0.174318913909
0.174108575142
0.17392508667
0.173719273183
0.173413607641
0.173117036437
0.172920914679
0.172747958856
0.172304580079
0.17155283341
0.171182370418
0.171152607065
0.171228193286
0.171266293358
0.171317138029
0.143078513084
0.143089738524
0.143107170663
0.143157340899
0.143220991057
0.143282449142
0.143350559113
0.143437961727
0.143525498854
0.143638668833
0.14378645356
0.143947686395
0.144118401221
0.144292851342
0.144485176257
0.144697591353
0.144920988647
0.145154517862
0.145407146699
0.145684162307
0.145989875274
0.146330359493
0.146726035804
0.147175526326
0.147641105539
0.148145121608
0.148701358802
0.149278270782
0.149886391638
0.150529134948
0.151192000344
0.151866983802
0.152557929012
0.153275512361
0.154020289715
0.154792425087
0.15559182786
0.156418110609
0.157270822561
0.158149007299
0.159051510668
0.159976564213
0.160920762693
0.161879235224
0.162846558365
0.163817231349
0.164785675518
0.165746103083
0.166692518096
0.167618956474
0.168519716226
0.169389595536
0.170224374135
0.171020946707
0.171775013176
0.172477180319
0.173120455581
0.173714081239
0.174162796089
0.174534290671
0.175184708315
0.17549442756
0.175579262951
0.175479738946
0.175239963162
0.174905977908
0.174512668313
0.174167172014
0.173886797595
0.173542015853
0.173166880897
0.17307423037
0.173198728243
0.172521126322
0.170982983818
0.170434745246
0.170644712994
0.170956037077
0.171015345996
0.171160470504
0.142869708837
0.142882638873
0.142905454758
0.142944742307
0.143003053304
0.143070471401
0.143144796895
0.143237051273
0.143338151384
0.143455148856
0.143607680146
0.14377220265
0.143944757536
0.144119458479
0.144315638509
0.144538448975
0.144766916727
0.145002910461
0.145256947241
0.145534726817
0.14583935615
0.146174685178
0.146566179777
0.147028496803
0.14751104029
0.148013813076
0.148573996734
0.14916055776
0.149766130972
0.150406844795
0.151066791907
0.151743940642
0.152445826156
0.153174367563
0.153930225726
0.154713943755
0.155525798047
0.156365365622
0.157232435499
0.158126613194
0.159046839535
0.159991364927
0.16095690978
0.161938458324
0.162930463756
0.163927732726
0.164925090715
0.165916669491
0.166895955306
0.167856619019
0.168793294531
0.169702380929
0.170582385493
0.171432103653
0.172242454485
0.173001599161
0.173753240311
0.174559691798
0.174913948971
0.174840914107
0.175031801181
0.175257798056
0.175337858003
0.175251099019
0.175039637518
0.174744668764
0.17440460424
0.174067642338
0.173759509112
0.173472133324
0.173320109307
0.1735341678
0.174280661821
0.174086685601
0.168971106777
0.168411790931
0.169764741613
0.170767530496
0.170719424337
0.171117070591
0.142634332215
0.142649045667
0.142682552502
0.142712039285
0.142763940968
0.142833385286
0.142912889626
0.143011511142
0.143128796066
0.143249363922
0.143405660067
0.143573987018
0.143750146789
0.143928662033
0.144128102772
0.144356505334
0.144590608344
0.144831781654
0.145089354921
0.145369204625
0.145674909199
0.146009083912
0.14639253384
0.146853930662
0.147362165274
0.147874741613
0.14842475239
0.149026756282
0.149642904504
0.150270794829
0.150926189104
0.15160952113
0.152321621705
0.153062042714
0.153830418418
0.154627079318
0.155452495933
0.156306786216
0.157189729235
0.15810118939
0.159040726218
0.160006672001
0.16099565553
0.162002590178
0.163022041783
0.164049435615
0.165080273872
0.166108569814
0.167126840211
0.168127979362
0.169107307084
0.170063868582
0.17099934339
0.171911552466
0.172775499557
0.173578726291
0.174249888441
0.174452142286
0.174673037287
0.174852411746
0.174970801614
0.175125576047
0.17518695729
0.175101624403
0.174892001003
0.174593059032
0.174239427282
0.173869261772
0.173514658816
0.173188231894
0.17292590093
0.172756509507
0.172482534279
0.170819872068
0.169254704357
0.169643620233
0.171177852045
0.172198422514
0.169830410904
0.171316204265
0.142367697308
0.142382093549
0.142415163988
0.142447262387
0.142497241484
0.142568916467
0.142651697696
0.142751986067
0.142884918316
0.143018125556
0.143178147912
0.143351331433
0.143533083447
0.143718498327
0.143923162082
0.144155164304
0.14439401306
0.144641284783
0.144903750475
0.145186802472
0.145494439454
0.145829957007
0.146208318666
0.146663220674
0.1471889588
0.147721633093
0.148266110672
0.148862819392
0.149490261762
0.15012499708
0.150777928413
0.151464621627
0.152185798805
0.152938401902
0.153720227418
0.154530907498
0.15537119042
0.156241460031
0.157141852368
0.158072292666
0.159032750716
0.160022067874
0.161036831846
0.162071624085
0.163121150749
0.164182137816
0.1652515894
0.16632321377
0.16738734648
0.168435805491
0.169465628779
0.170479729152
0.171483198176
0.172476007752
0.173355927547
0.173792355351
0.174051918377
0.17430645977
0.174521958068
0.17468669514
0.174781818377
0.174853188792
0.174844929617
0.174715129961
0.174471136937
0.174139143903
0.17374813461
0.173327538135
0.172901652652
0.17248474131
0.172063953831
0.171612969273
0.17104119107
0.170128197437
0.169463477397
0.169586006726
0.170354179768
0.170608340901
0.171640439275
0.173231439243
0.14207162683
0.142085419631
0.142120331098
0.142153769284
0.14220511984
0.142278217289
0.142363943708
0.142462693392
0.142600095818
0.14275142615
0.142920479099
0.143100468307
0.143289963974
0.143486628875
0.143697799008
0.143933685076
0.144177375696
0.144431482444
0.14469977609
0.144987118144
0.145297503692
0.145634784328
0.146010601503
0.146457159605
0.146985841576
0.147548188802
0.148104872319
0.148690301542
0.149314277441
0.149953214796
0.150611476788
0.151306329103
0.152037616203
0.152802544957
0.153598614054
0.15442470734
0.15528107734
0.156168697529
0.157088002614
0.158039204288
0.159022420308
0.160036997047
0.16107996351
0.16214546755
0.163227852334
0.164325616898
0.165438588215
0.16656041632
0.167678100342
0.168781839449
0.169870725393
0.170953207418
0.172046602768
0.173078867496
0.173335048831
0.173588422284
0.173862533564
0.174099931153
0.174282312946
0.174405117075
0.174459709917
0.174452942231
0.174363170841
0.174166697795
0.173864143277
0.173472644741
0.173014297283
0.172511384559
0.171982258388
0.171439385332
0.170852532312
0.170202436951
0.169494533983
0.168716730656
0.168080746385
0.168001025652
0.168622472034
0.169761367753
0.171841538206
0.174141881864
0.141748939904
0.141761167029
0.14179191958
0.141830140601
0.141887831522
0.141962856907
0.142053390486
0.142152701162
0.142290966747
0.142454146492
0.142631831417
0.142818461085
0.143014548651
0.143226226843
0.143448035918
0.143688457998
0.143938001088
0.144200704685
0.144476310889
0.144769206781
0.145083396423
0.145422896393
0.145797820166
0.146237644377
0.146762518853
0.147345191586
0.147925990913
0.148510353754
0.14912541629
0.149762990581
0.150428333619
0.15113234684
0.151874653284
0.152652295009
0.15346357978
0.154306791833
0.155181113502
0.156087483927
0.15702739439
0.158001060783
0.15900892787
0.160051070205
0.161124952771
0.162224158322
0.163341454421
0.164477904145
0.165640554
0.166822690812
0.168001365955
0.169167636323
0.1703216217
0.171484925435
0.172581878978
0.172857886898
0.173120480269
0.173373121072
0.173611593008
0.173804079675
0.17393378372
0.173992413553
0.173972638569
0.173871793726
0.173680204027
0.173386096625
0.172988987489
0.172499687445
0.17193383396
0.171307183982
0.170632038534
0.169915102978
0.169136739395
0.168262381487
0.167306985441
0.166324665495
0.165478436037
0.165072309411
0.165328388062
0.166337474049
0.168603130294
0.170613216467
0.141403484399
0.141414416597
0.141439415683
0.141483003849
0.141546278175
0.141623126768
0.141717837692
0.141822302592
0.141959070794
0.14212945366
0.142313657321
0.14250582684
0.142705795712
0.14292792773
0.143166516607
0.143414792148
0.143671503158
0.143944211054
0.144230190175
0.144530990395
0.144850909883
0.145193359653
0.145568930993
0.146004072385
0.146520057121
0.147104851573
0.147711300766
0.14831198211
0.148926934538
0.149563944774
0.150231290668
0.150942771451
0.151696151241
0.152485880089
0.153313684747
0.154175720175
0.155069049497
0.155996097033
0.156958612018
0.157957150311
0.158991920799
0.160063428316
0.161170182649
0.162306782489
0.163466738081
0.164651238322
0.165866088971
0.167102594701
0.168346187613
0.169593196318
0.170822034212
0.172001118065
0.172316713912
0.172596013711
0.172854664166
0.173083469583
0.173270185585
0.173396611355
0.173448246518
0.173416471462
0.173295307484
0.173080770707
0.172767447854
0.172349635566
0.171827050075
0.17120598766
0.170496039339
0.169706406172
0.168842780137
0.167904107246
0.166882478325
0.165713136075
0.164386627998
0.162972252951
0.161561563665
0.160285020342
0.159208976646
0.158166821926
0.156657541046
0.153620758087
0.141036970736
0.14104781324
0.141071438493
0.14111994304
0.141184093675
0.141260400708
0.141354518018
0.141465919766
0.141601132094
0.141776364094
0.141966322701
0.142164043853
0.142368997429
0.142596088235
0.142849558726
0.143109886526
0.14337626449
0.143658958471
0.143956655151
0.144268637178
0.144597746382
0.144944817473
0.145322429563
0.14575577975
0.146263856686
0.146844103776
0.147464332838
0.148084661249
0.148703653048
0.149342530727
0.150018175472
0.150735840988
0.151498315829
0.152301892729
0.153147160461
0.154028944655
0.154943211977
0.155892833423
0.156879855751
0.157905356533
0.158969731635
0.160073765456
0.161218169585
0.162400734672
0.163612160962
0.1648434095
0.166100165182
0.167388417363
0.168712165333
0.170081064278
0.171364579622
0.171709749065
0.172004528629
0.17228430584
0.172518564432
0.172697490829
0.172811961875
0.172849334848
0.172798619739
0.172652697678
0.172406765681
0.1720572323
0.171600539919
0.171033484788
0.170355365262
0.169568621432
0.168677025384
0.167682988268
0.166584980752
0.165374922752
0.164041401716
0.162497371026
0.160668799237
0.15857536895
0.156204811393
0.153477066474
0.150192361254
0.146014341668
0.140809910471
0.139441033803
0.140646064611
0.140657501575
0.14068241754
0.140736095461
0.140800523336
0.140875470236
0.140966362314
0.141082569272
0.141214491546
0.141392894232
0.141588783016
0.141792372902
0.142003620731
0.142237043741
0.142500728823
0.142773585332
0.143051792758
0.143345372604
0.143654112193
0.143978563785
0.14432046984
0.144675025573
0.145055870431
0.145489864684
0.145992507797
0.146566080514
0.147190556172
0.147825541847
0.148460048376
0.149105372477
0.149788463144
0.150514772725
0.1512844591
0.152096994059
0.152957368738
0.153862055064
0.154801113822
0.155776074595
0.15678949629
0.157843853404
0.158940908534
0.16008227101
0.161272734152
0.162509394948
0.163769396673
0.165039670234
0.166335757842
0.167687173121
0.169134340042
0.17070724487
0.171074079956
0.171362683484
0.17165543567
0.171905477381
0.172086903424
0.172191618083
0.172211936895
0.172138646404
0.171964038552
0.171682887242
0.171291558063
0.170787129751
0.170166767709
0.169427681861
0.168567721481
0.167585356513
0.166478314234
0.165241303491
0.163863270096
0.162324026052
0.160589874854
0.158603093262
0.156190852991
0.153222418407
0.149571917354
0.144872232329
0.138315259187
0.128092532414
0.109019256147
0.0628839054329
0.1402227819
0.140234760546
0.140263193739
0.140322762789
0.140388425309
0.140462739672
0.140552730067
0.140670858901
0.14079886699
0.140977873123
0.141179425337
0.141388967186
0.141606722022
0.141846792769
0.142118820809
0.142403736532
0.142696320179
0.143002219568
0.143321641763
0.14365829622
0.144015507991
0.144381451007
0.144766423847
0.145202583374
0.145703206892
0.146269890315
0.146891800111
0.147531170112
0.14818480637
0.148850552273
0.14954107411
0.150271663823
0.151051712631
0.151878740878
0.152749448189
0.153671965988
0.154637825001
0.155641434685
0.15668537452
0.157771538907
0.158903755664
0.160089954435
0.161338521804
0.162632325574
0.163936242262
0.165245850193
0.166593755222
0.168035390705
0.169485497433
0.170505764288
0.170775298736
0.171008270134
0.171252720725
0.171441683046
0.171542713992
0.171548242246
0.171452205864
0.171248011446
0.170930474954
0.17049603255
0.169941994968
0.169265804982
0.168464494887
0.1675343878
0.166470958453
0.165268313629
0.163917834827
0.162405990675
0.160711414976
0.158801095699
0.156624722818
0.15411379196
0.151059012664
0.147157717627
0.142142351539
0.13544422177
0.125850437953
0.110946976417
0.0858333762711
0.0440475037106
0.139755855648
0.139768312337
0.139800230348
0.139866176393
0.139933051472
0.14001053475
0.14010180344
0.140220304409
0.140348097969
0.140528896103
0.140736292274
0.140951782697
0.141175954894
0.141422268534
0.141700998853
0.141995714319
0.142305096066
0.142625808549
0.142956801323
0.143305448204
0.143678523102
0.144061127816
0.144452427975
0.144890175549
0.145391953794
0.145954303578
0.146572221137
0.147211046322
0.147872985344
0.148563136708
0.149276089958
0.150015498632
0.150794158601
0.151631067282
0.152521281902
0.153461825398
0.154452012254
0.155485600352
0.156562429549
0.157684822897
0.158859288177
0.160102583342
0.161416285582
0.162765632926
0.164122495661
0.165501714681
0.166958957388
0.168464756821
0.169695157324
0.170125324004
0.170372187613
0.170585485199
0.17076578991
0.170866561152
0.170863742547
0.170749161216
0.170517968303
0.170166029372
0.16969027417
0.169088477243
0.168358560127
0.167497890381
0.166502701132
0.165367595659
0.164085011938
0.162644350199
0.161030453731
0.159221278886
0.157184593127
0.154873283899
0.152218359932
0.149117606852
0.14542350924
0.14074349685
0.134564434395
0.126325768281
0.114930924406
0.0984943305351
0.0736856826664
0.0394510976493
0.139236311099
0.139251253233
0.139284968799
0.139351479742
0.139423466415
0.139510287938
0.139607668498
0.139730359412
0.139865729626
0.140044296725
0.140257021237
0.140478638093
0.140709406043
0.1409618631
0.141246274758
0.141547011672
0.141869748833
0.142209323985
0.142555283327
0.142917986683
0.143305946047
0.143709415533
0.144115835436
0.144553049094
0.145055904277
0.145617025031
0.146231978988
0.14687055719
0.147534137212
0.148239525776
0.148977832636
0.149739192743
0.150525767905
0.15136375308
0.152263818165
0.153225293457
0.15424202096
0.155307366563
0.156418712937
0.157581162817
0.158810676512
0.160123124671
0.161502792884
0.162914786667
0.164354169664
0.165858497838
0.167384833017
0.168637269776
0.169242060728
0.169581813744
0.169864098015
0.170058817705
0.170160107231
0.170156048686
0.170032150033
0.169781156351
0.16940025831
0.168887894678
0.168242912314
0.167464142561
0.166549770899
0.165496666842
0.164299761347
0.162951417205
0.161440663753
0.159752088897
0.157864149348
0.155746678656
0.153357323491
0.150636435482
0.147499572597
0.143826093176
0.139443024489
0.134074165012
0.127135752996
0.11788996529
0.105495710571
0.0886050183896
0.0647767491811
0.0346175116548
0.138669851579
0.138688895292
0.138723249331
0.138783724783
0.13886412908
0.138961087558
0.139067900582
0.13919955051
0.139349341612
0.139525337333
0.13974045355
0.139967590973
0.140205278305
0.140464378725
0.140755094581
0.141062588351
0.141393126586
0.141749809902
0.142114304588
0.142494972944
0.142898329534
0.143322443118
0.143755191184
0.144203578631
0.144701253316
0.145260094242
0.145872279579
0.146511525652
0.147175071033
0.147886656975
0.148641660297
0.149431273884
0.150239120805
0.151082211117
0.151986348611
0.152960132237