/*--------------------------------*- C++ -*----------------------------------*\
| =========                 |                                                 |
| \\      /  F ield         | OpenFOAM: The Open Source CFD Toolbox           |
|  \\    /   O peration     | Version:  v1806                                 |
|   \\  /    A nd           | Web:      www.OpenFOAM.com                      |
|    \\/     M anipulation  |                                                 |
\*---------------------------------------------------------------------------*/
FoamFile
{
    version     2.0;
    format      ascii;
    class       volScalarField;
    location    "801";
    object      pa;
}
// * * * * * * * * * * * * * * * * * * * * * * * * * * * * * * * * * * * * * //

dimensions      [0 2 -2 0 0 0 0];


internalField   nonuniform List<scalar> 
6400
(
-0.122820400346
-0.122820911166
-0.12282236952
-0.122825267143
-0.122829662028
-0.122835625344
-0.122843246189
-0.12285287881
-0.122864954337
-0.122880028229
-0.122899541024
-0.122924497722
-0.122954810233
-0.122990926384
-0.123033837807
-0.123084827447
-0.123145091746
-0.123215367781
-0.123295844105
-0.123385783643
-0.123484372251
-0.123592846438
-0.123714334139
-0.123852275703
-0.124009335486
-0.124186547794
-0.124383759838
-0.124601055545
-0.124839352221
-0.125100030968
-0.12538443047
-0.12569281867
-0.126023484335
-0.12637447051
-0.126745235439
-0.127135159586
-0.12754515544
-0.127978866405
-0.128435945164
-0.128911741693
-0.129407014662
-0.129929358443
-0.130482913101
-0.131062898418
-0.131662020935
-0.132274689022
-0.132896363995
-0.133523196115
-0.134151428844
-0.134777544284
-0.135398317733
-0.136008461024
-0.136599204571
-0.137159728882
-0.137686266704
-0.13818016987
-0.138635344779
-0.139040230134
-0.139389047534
-0.139685359121
-0.139932491392
-0.140130596744
-0.140279198446
-0.140398851329
-0.140527138235
-0.140702796767
-0.140926354241
-0.141151031747
-0.141339749864
-0.141489490489
-0.141610119359
-0.141712876406
-0.141804961643
-0.14188414375
-0.141952602069
-0.142010462664
-0.142057119333
-0.142087017013
-0.142105783955
-0.142113656978
-0.122819680707
-0.12282022069
-0.122821526502
-0.122824319938
-0.122828908595
-0.122835046105
-0.122842626582
-0.122851808173
-0.12286337476
-0.122878233865
-0.122897454887
-0.122921939935
-0.122951975243
-0.122987892795
-0.123030379432
-0.123080561464
-0.123140180415
-0.12321011731
-0.123290357958
-0.123379887126
-0.123477404368
-0.12358479832
-0.123705640374
-0.123843038253
-0.123999611422
-0.12417641308
-0.124373055693
-0.124589860835
-0.124827782886
-0.125088014247
-0.12537171692
-0.125679590438
-0.126010002618
-0.126360384099
-0.126730665802
-0.127120302104
-0.127529900906
-0.127963628287
-0.128421193323
-0.128897443294
-0.129392373514
-0.129914886596
-0.130470155616
-0.131051569597
-0.13165151735
-0.132265198687
-0.132888038234
-0.133516327567
-0.13414602353
-0.134772714445
-0.135393047295
-0.136004137976
-0.136598649864
-0.137161459568
-0.137689841307
-0.138186372291
-0.138640772527
-0.139043673745
-0.139392847293
-0.139689156457
-0.139934340465
-0.140132730373
-0.140284235278
-0.140408176217
-0.140540257247
-0.140717220249
-0.140943815176
-0.141168312343
-0.141355622865
-0.141504763754
-0.141624993503
-0.141727856601
-0.14182064586
-0.141900770085
-0.141967846228
-0.142023111652
-0.142065753254
-0.142094220369
-0.142112205627
-0.142118130084
-0.122817614911
-0.12281848175
-0.122819609159
-0.12282209389
-0.122826411672
-0.122833058508
-0.12284093966
-0.122849503074
-0.122860204954
-0.122874366888
-0.122892948604
-0.122916725671
-0.122946086446
-0.122981316712
-0.123022873656
-0.123071206252
-0.123128946958
-0.123198665112
-0.123278459686
-0.123366655698
-0.123462239848
-0.123567188134
-0.12368658251
-0.12382343583
-0.123978942925
-0.124154247242
-0.124349787549
-0.124565681652
-0.12480261205
-0.125061739297
-0.125344193869
-0.125650950967
-0.125980813633
-0.126329664525
-0.126698097113
-0.127087588289
-0.127496610465
-0.127929331089
-0.128387148465
-0.128864967072
-0.129363117179
-0.129888025945
-0.130443229215
-0.131024582979
-0.131625521046
-0.132240774744
-0.13286585467
-0.133496701969
-0.13412923378
-0.13475934812
-0.135383284162
-0.135996361858
-0.136590568235
-0.137156934424
-0.137692079512
-0.138191221008
-0.138645058022
-0.139047639836
-0.139396993945
-0.139693539815
-0.139939667406
-0.140137885214
-0.140293129735
-0.140426789832
-0.140572605098
-0.140758853038
-0.140978759423
-0.141196621396
-0.141385062105
-0.141536668475
-0.141659161002
-0.141762896016
-0.14185228297
-0.141927571745
-0.141991701694
-0.142043818676
-0.142082181218
-0.142107935323
-0.142123821356
-0.142129422844
-0.12281467622
-0.122815515696
-0.122816393467
-0.122818567565
-0.122822167591
-0.122828418151
-0.122837716553
-0.122845986368
-0.122855531462
-0.12286859725
-0.122886189017
-0.122909018858
-0.122937424702
-0.122971363791
-0.123011236917
-0.123058600491
-0.12311529484
-0.123182625041
-0.123258981624
-0.123342979012
-0.123436054389
-0.123540431122
-0.123658764939
-0.123793876887
-0.123947648922
-0.124121205404
-0.124315069672
-0.124529410223
-0.124764792187
-0.12502222608
-0.125303070067
-0.125608183261
-0.125936430838
-0.12628452173
-0.126650127806
-0.127036833729
-0.127446497095
-0.127878818104
-0.128335349935
-0.128814960156
-0.129317298873
-0.129845698605
-0.13040242734
-0.130984801746
-0.131587472163
-0.132205246175
-0.132833502472
-0.133468001714
-0.134104591692
-0.134739122304
-0.135367331035
-0.135983947027
-0.136581830738
-0.1371536433
-0.137693846263
-0.138195605214
-0.13865073351
-0.139054051132
-0.139403886726
-0.139700922577
-0.139947834733
-0.140149376865
-0.140316453279
-0.140468571402
-0.140626548903
-0.140810637837
-0.141028556224
-0.14124669032
-0.141437009468
-0.141590634225
-0.141711898122
-0.141809670988
-0.141892105888
-0.141966034459
-0.142029781508
-0.142077246398
-0.142109223295
-0.142132839464
-0.142148956523
-0.142155493289
-0.122810093779
-0.122810172091
-0.122811171056
-0.122813209013
-0.122816876539
-0.122821935149
-0.122829863894
-0.12283862112
-0.122848189348
-0.122860556774
-0.12287697071
-0.122898640749
-0.122925742994
-0.122958675665
-0.122997736549
-0.123042972419
-0.123096192475
-0.123158680288
-0.123230520615
-0.123311656195
-0.123402743521
-0.123505213987
-0.123621593506
-0.123754555292
-0.123905947033
-0.124077077345
-0.124268522792
-0.12448064378
-0.124713933043
-0.124969219401
-0.125247680082
-0.125550950768
-0.125878057788
-0.126222575601
-0.126585366819
-0.126969651263
-0.127377110474
-0.127809532945
-0.128267144352
-0.128749100421
-0.129255285001
-0.129787453902
-0.130346797329
-0.130931340537
-0.131536702896
-0.132157959511
-0.132790415713
-0.133429681864
-0.134071519147
-0.134711657085
-0.135345502191
-0.135967556876
-0.136571163118
-0.137149327303
-0.137695123224
-0.138200619365
-0.138658178824
-0.139063228781
-0.139414510194
-0.139713414424
-0.13996413831
-0.140174690913
-0.140358985937
-0.140530256282
-0.140698152296
-0.140884824043
-0.141100535685
-0.141317876532
-0.141509646096
-0.141663201431
-0.141779202342
-0.141869925494
-0.141951881098
-0.14202802953
-0.142087535473
-0.14212814123
-0.142156429483
-0.14218123999
-0.142195657006
-0.142200098933
-0.122801981184
-0.122801770873
-0.122803328255
-0.122805163078
-0.122808665478
-0.122813196658
-0.122820288317
-0.122828526917
-0.122838061135
-0.122849833544
-0.122864750094
-0.122884855951
-0.122911048901
-0.122942903771
-0.12297939522
-0.123021388135
-0.123070605264
-0.123128759475
-0.123196491313
-0.123274014155
-0.123361756944
-0.123461343915
-0.123575085386
-0.123705332091
-0.123853791
-0.124021594094
-0.124209893558
-0.124419102468
-0.124649706988
-0.124902378487
-0.125178138015
-0.125478306872
-0.12580162824
-0.126144709801
-0.126503509169
-0.126883817458
-0.127289946077
-0.127722821815
-0.128181960119
-0.128666599096
-0.129176619556
-0.129712891764
-0.130275835478
-0.130863747956
-0.131472904443
-0.132098694236
-0.132736423262
-0.133381598875
-0.13402989278
-0.134676922472
-0.135317902412
-0.135947238158
-0.136558377039
-0.137144056338
-0.137696358335
-0.13820686152
-0.138668400315
-0.139077000898
-0.139432067767
-0.139736171901
-0.139995383654
-0.14021994313
-0.140424226972
-0.140610918883
-0.140789303082
-0.140984977926
-0.14120471324
-0.141420229064
-0.141608944901
-0.141756679874
-0.14186537983
-0.141955618061
-0.142042631177
-0.142115707055
-0.142167441085
-0.142201525967
-0.142228795211
-0.142250437918
-0.142260642358
-0.142264462812
-0.122789944497
-0.122790512174
-0.122792931115
-0.122795416972
-0.122797486933
-0.122801605162
-0.122808449223
-0.122816078194
-0.12282509787
-0.122836037992
-0.122850241187
-0.122868185744
-0.12289247
-0.122921514073
-0.122954752971
-0.122993149653
-0.123038676253
-0.123092974851
-0.123156565202
-0.123229440005
-0.123312986507
-0.123409063037
-0.123519349144
-0.123645957745
-0.123790691342
-0.123954986483
-0.124138691314
-0.124344104782
-0.124571586879
-0.124821673166
-0.125093716841
-0.125389368179
-0.125708687881
-0.126046362902
-0.126402178192
-0.126780094366
-0.127185203359
-0.127618527242
-0.128079315328
-0.128566777768
-0.129080729986
-0.1296214993
-0.130188952385
-0.130781421922
-0.131395571517
-0.132027054721
-0.132671224124
-0.133323531195
-0.133979581521
-0.13463491219
-0.135284625492
-0.135923025456
-0.136543404364
-0.137138029819
-0.137698330177
-0.138215777491
-0.13868375974
-0.139099041286
-0.13946190103
-0.139775975244
-0.140048687373
-0.140291108023
-0.14051274215
-0.140715864956
-0.140912831667
-0.141120710518
-0.141344247789
-0.141554391806
-0.141733688199
-0.141873424085
-0.14198162328
-0.142079113064
-0.142166690308
-0.142230937752
-0.142273462538
-0.142301632891
-0.142325561053
-0.142339009546
-0.142341820708
-0.1423435044
-0.122776169415
-0.122777430402
-0.12277991345
-0.122783089773
-0.122784516342
-0.122788574027
-0.122794301799
-0.122801190345
-0.122809576929
-0.122818441423
-0.122831827711
-0.122848312201
-0.122869528769
-0.122895009032
-0.12292473275
-0.122959177884
-0.123001013144
-0.123051296376
-0.123109968532
-0.123177748601
-0.123256485527
-0.123348130913
-0.123454119873
-0.123576676819
-0.123717138732
-0.123876430079
-0.124055967009
-0.124254846047
-0.12447898425
-0.124726318721
-0.124994216913
-0.125282598775
-0.125596216924
-0.125929173765
-0.126281170851
-0.126657859315
-0.1270624769
-0.12749612592
-0.127958473159
-0.128448834934
-0.128966903966
-0.129512630879
-0.130085478113
-0.130683687891
-0.131304104778
-0.13194256234
-0.132594471627
-0.133255263103
-0.133920498343
-0.134585660357
-0.135245779004
-0.135895040861
-0.136526488324
-0.137131960079
-0.137702559001
-0.138229957162
-0.138708182251
-0.139134629885
-0.13950999066
-0.139838201211
-0.140126853868
-0.140386630423
-0.140626863479
-0.140854423733
-0.141072116737
-0.141294018865
-0.141516618963
-0.141720129449
-0.141890998128
-0.142028058125
-0.142142516369
-0.142245358412
-0.142325199441
-0.142377338666
-0.142409021127
-0.142429505592
-0.142441193556
-0.142441932411
-0.142433670087
-0.142429031205
-0.122761497435
-0.122763022207
-0.12276506445
-0.122766701425
-0.122768436787
-0.122773014894
-0.12277761954
-0.12278340163
-0.122791252935
-0.122798877579
-0.122808654471
-0.12282341816
-0.122841980837
-0.122863546581
-0.122889650355
-0.122920786519
-0.122957885256
-0.123003051598
-0.123056448149
-0.123118991183
-0.123192401354
-0.123278556458
-0.123378837574
-0.12349597825
-0.123632640099
-0.123785465414
-0.123959541893
-0.124154466049
-0.124371552959
-0.124613177206
-0.124876600533
-0.125161394569
-0.125465025233
-0.125791426754
-0.126141071515
-0.126516701372
-0.126920821861
-0.127354713698
-0.127818526311
-0.128311836641
-0.128834268867
-0.129385479677
-0.129964613795
-0.130569765651
-0.13119781208
-0.131844670261
-0.13250579478
-0.133176604959
-0.133852619152
-0.134529275671
-0.135201565409
-0.135863603038
-0.136508268083
-0.137127206715
-0.137711550874
-0.138253309978
-0.138746839645
-0.139189332773
-0.139581011516
-0.139925929996
-0.140231492836
-0.140509401504
-0.140771460702
-0.141023828238
-0.141266417214
-0.141505202033
-0.141734163307
-0.141927850879
-0.142092780403
-0.142232720646
-0.142355490529
-0.142456218796
-0.142522533883
-0.142558911375
-0.142576980185
-0.142582279895
-0.142572896685
-0.142553788365
-0.142531024224
-0.142517039934
-0.122745958027
-0.122747489337
-0.122749426578
-0.122749922782
-0.122751380998
-0.122754913859
-0.122758321032
-0.12276249707
-0.122768112257
-0.12277592744
-0.122782751636
-0.122794207862
-0.122809633194
-0.122827642612
-0.122849393325
-0.122876760782
-0.122909398645
-0.12294873281
-0.122995972355
-0.123052687969
-0.123120497916
-0.123200811458
-0.123294636096
-0.123403952769
-0.123535084028
-0.123683606757
-0.12384751347
-0.124037052888
-0.124247385586
-0.124483614125
-0.124741014565
-0.125018738134
-0.12531611179
-0.125635505853
-0.125981537243
-0.126355676064
-0.126759159124
-0.127193210943
-0.127658405119
-0.128154689619
-0.128681752283
-0.129239035582
-0.129825396645
-0.130438744183
-0.13107589766
-0.131732774476
-0.132404824542
-0.133087428085
-0.133776029672
-0.134466007762
-0.135152365283
-0.135829299375
-0.136489824286
-0.137125853177
-0.137728901094
-0.138291029512
-0.138805609069
-0.139267734457
-0.139677697509
-0.140042858191
-0.140368780537
-0.140666419033
-0.140950770158
-0.141226391161
-0.141493929456
-0.141750503478
-0.141983972668
-0.14218815353
-0.142350976412
-0.142497308005
-0.142626139237
-0.142717991429
-0.142765601826
-0.14277985844
-0.142780548944
-0.142761627111
-0.142722822311
-0.142674792056
-0.142631949452
-0.142606083128
-0.122729060601
-0.122730230471
-0.122731733382
-0.12273184584
-0.122733553946
-0.122734925412
-0.122736686645
-0.122739073312
-0.122740975982
-0.122747064727
-0.1227520092
-0.122760213681
-0.122772137293
-0.122787024592
-0.12280466546
-0.122826733898
-0.122854214817
-0.122887722203
-0.122928446417
-0.122978319527
-0.12303958717
-0.12311392614
-0.123202352989
-0.123303010594
-0.123423280838
-0.12356731091
-0.123724504215
-0.123904487509
-0.124107250555
-0.124331712199
-0.12458378
-0.124855313161
-0.125146151397
-0.125459976977
-0.125802054701
-0.126173901876
-0.126576311367
-0.127010366066
-0.127476870004
-0.127976136791
-0.128508080228
-0.129072057169
-0.129666651896
-0.130289544227
-0.130937439424
-0.131606199385
-0.132291206345
-0.132987714699
-0.133691000961
-0.134396338151
-0.135098815096
-0.135792997204
-0.136472618513
-0.137130615859
-0.13775931316
-0.138349589791
-0.13889050691
-0.139372536388
-0.139802063853
-0.140199235943
-0.140555067037
-0.14087003175
-0.141172690663
-0.141467199098
-0.141753708415
-0.142025002374
-0.142271314181
-0.142493544404
-0.142667329042
-0.142833052948
-0.142969341707
-0.143047659739
-0.143066511068
-0.143041641311
-0.14302384509
-0.142975562132
-0.142896922596
-0.142805620214
-0.142730857523
-0.142686575733
-0.122710623714
-0.122711069226
-0.12271109311
-0.122711394654
-0.122712946494
-0.12271256097
-0.122712667989
-0.122713337866
-0.12271222957
-0.122714246155
-0.122716650144
-0.122721431528
-0.122729346557
-0.122740813559
-0.122755344681
-0.122771618867
-0.122792774045
-0.122819859359
-0.122853733505
-0.122895990679
-0.122948998011
-0.123015439119
-0.123098943661
-0.123194278774
-0.123301749162
-0.123435093503
-0.123586353248
-0.123754124409
-0.123950319604
-0.124166825332
-0.124406431008
-0.124668766163
-0.124953220753
-0.125263015922
-0.125601226203
-0.125970101553
-0.126370884628
-0.126804695202
-0.127272462628
-0.127774739401
-0.128311766127
-0.128883042229
-0.129486948226
-0.1301208656
-0.130781344439
-0.131464176422
-0.132164605813
-0.132877605147
-0.133598093636
-0.134321110323
-0.13504188723
-0.135755797314
-0.136458231653
-0.137144457717
-0.13780836511
-0.138436867469
-0.139008688844
-0.139505839378
-0.139955328106
-0.140418061421
-0.140822297803
-0.14113701051
-0.141447120347
-0.141753974717
-0.142058598577
-0.142346948722
-0.142607297117
-0.142830795769
-0.143039294166
-0.143232778297
-0.143401322906
-0.143462556276
-0.1434359792
-0.143334768583
-0.14332043448
-0.143241422381
-0.14310509374
-0.142939016547
-0.142811095737
-0.142733376179
-0.122690889398
-0.122690629324
-0.122688951744
-0.122688806592
-0.122688627021
-0.12268721406
-0.122685815639
-0.12268423931
-0.122681035676
-0.12267918573
-0.122677572682
-0.122678195184
-0.12268152362
-0.122688163243
-0.122698621689
-0.122709608572
-0.122724623039
-0.122744916351
-0.122771489752
-0.122805731557
-0.122849495355
-0.122905630063
-0.122980186583
-0.123071592493
-0.123170075072
-0.123288340418
-0.123431661916
-0.123588752864
-0.123770155564
-0.123978105608
-0.124208592631
-0.124462199585
-0.124738749914
-0.125043112407
-0.125377091849
-0.125742592901
-0.126141232088
-0.126574390548
-0.127043327216
-0.127548775595
-0.128091146253
-0.128670252667
-0.129284532862
-0.129931097133
-0.130606273551
-0.131305786822
-0.132024693032
-0.13275745766
-0.133498294886
-0.134241714899
-0.134983034368
-0.135718947459
-0.136447788939
-0.137169189074
-0.13788125945
-0.138563490036
-0.13917657616
-0.139673815504
-0.140128192301
-0.140761800139
-0.141332181555
-0.14154597605
-0.141851443932
-0.142175527352
-0.14251340695
-0.142825067987
-0.143098199036
-0.143252993942
-0.143448523158
-0.143842784975
-0.144165915192
-0.144201288186
-0.144057481751
-0.143608454192
-0.143659241351
-0.143566055349
-0.143348499312
-0.143051865681
-0.142847131532
-0.142706818516
-0.122670539181
-0.122669913291
-0.122668054215
-0.122665650944
-0.122662866461
-0.12265993203
-0.122656693642
-0.122652105827
-0.122647167612
-0.122641284999
-0.122635063474
-0.122630955434
-0.122629192603
-0.122630195462
-0.122633925117
-0.122639482002
-0.122648829055
-0.122662316218
-0.122681150185
-0.122706891205
-0.122741145787
-0.122786095959
-0.122848127354
-0.122931689657
-0.123024921032
-0.123127890802
-0.123258607684
-0.123407789836
-0.123573108053
-0.123766739328
-0.12398610029
-0.124230331372
-0.124500529757
-0.12479900062
-0.125127904405
-0.12548938176
-0.125885431968
-0.126317569747
-0.126787318886
-0.127295968699
-0.127844114252
-0.128431695074
-0.129057377315
-0.129718249335
-0.130410502078
-0.131129836281
-0.131871087418
-0.132627895093
-0.133393205213
-0.134160409074
-0.134924537711
-0.135683922709
-0.136440803566
-0.137201729998
-0.137978465471
-0.138749791086
-0.139454147497
-0.139901156311
-0.140190044926
-0.141262722318
-0.141209598629
-0.141147446575
-0.141207847548
-0.141291788167
-0.14141065695
-0.141545506717
-0.141709617114
-0.14192585061
-0.142159386005
-0.142393426892
-0.142633897145
-0.142711041892
-0.142721220738
-0.143269028015
-0.144321200045
-0.144298348425
-0.143872836036
-0.143123847661
-0.142799759472
-0.142529314105
-0.122649628272
-0.122648766408
-0.122646803595
-0.122641782265
-0.122636634597
-0.122631679001
-0.122626180239
-0.122618724616
-0.122611646006
-0.122600791353
-0.122589491114
-0.122580240762
-0.122573039171
-0.122568249121
-0.122564672308
-0.122563297132
-0.122565893749
-0.122571972957
-0.122582461202
-0.122598965831
-0.122623234201
-0.122657005068
-0.122704778078
-0.122775809315
-0.122862756182
-0.122953083145
-0.12306596025
-0.123206333104
-0.123362090371
-0.123537624868
-0.123742437096
-0.123975367737
-0.124237028033
-0.124528541712
-0.124851566902
-0.125208324515
-0.125601077612
-0.126031822925
-0.126502195501
-0.127013841085
-0.127567991715
-0.128164804148
-0.128803040758
-0.129479911136
-0.130191784625
-0.130934647613
-0.13170317598
-0.13248979161
-0.133285277915
-0.134080890822
-0.134870355483
-0.13565328917
-0.136434514875
-0.137224320084
-0.138084420666
-0.139024523597
-0.140001320942
-0.139948052262
-0.139929097615
-0.140185420572
-0.140536969165
-0.140554184413
-0.140432553849
-0.140227713574
-0.139990354796
-0.139730428263
-0.139493432026
-0.139348358845
-0.139334305773
-0.139451892396
-0.139679456901
-0.139919777265
-0.140207301089
-0.140747323492
-0.141592645169
-0.142138905604
-0.142306015996
-0.142685252276
-0.142782928759
-0.142129665476
-0.122628334898
-0.122626926827
-0.122623539431
-0.122617069748
-0.122609906752
-0.122602790189
-0.122594507747
-0.122583798296
-0.122573234425
-0.122557321072
-0.122541039754
-0.122526437122
-0.12251358623
-0.122502783249
-0.122491629662
-0.12248219219
-0.12247675149
-0.122474374791
-0.122475607972
-0.122481983672
-0.122495264158
-0.122517317357
-0.122551155786
-0.122606154574
-0.122681649314
-0.122764197984
-0.122856575795
-0.122977634869
-0.12312385244
-0.123287766621
-0.12347710448
-0.123696500341
-0.123947333985
-0.124230157896
-0.124546114799
-0.124897109601
-0.125285756981
-0.125714377524
-0.126185053422
-0.126699595285
-0.127259777204
-0.127866401322
-0.128518449417
-0.129213106921
-0.129947139431
-0.130717609835
-0.131519706265
-0.132344139616
-0.133178022067
-0.134009060236
-0.134827738483
-0.135634626564
-0.136427381562
-0.137186079251
-0.138068228708
-0.13930673582
-0.139430317193
-0.139540895641
-0.139570794861
-0.139608997011
-0.139762419393
-0.139653972382
-0.139318065179
-0.138800679735
-0.138175265831
-0.137486406123
-0.136799887226
-0.136189400848
-0.13572749528
-0.135466103193
-0.13539781778
-0.135435966367
-0.135602233578
-0.136142766746
-0.137294795016
-0.138703412312
-0.13991933518
-0.140579936786
-0.140723746222
-0.140633273489
-0.122607396576
-0.122605428311
-0.122600724425
-0.122592476535
-0.122583530724
-0.122573897161
-0.122562306134
-0.122547585665
-0.122532012545
-0.1225115691
-0.122490055533
-0.122469801392
-0.122451055807
-0.122434045709
-0.122414407495
-0.122396253696
-0.12238181959
-0.122369971884
-0.122360861495
-0.122356064024
-0.122357193681
-0.122366273759
-0.122385842566
-0.122423214437
-0.12248230907
-0.122556173359
-0.122632212114
-0.122730941103
-0.122857436326
-0.123008582468
-0.123184283883
-0.123390425189
-0.123628946478
-0.123901377957
-0.124208995514
-0.124553278866
-0.12493673533
-0.125362390634
-0.125832691192
-0.126349841059
-0.126916031646
-0.127532737488
-0.128199606981
-0.128913889179
-0.129672647342
-0.130475130575
-0.131318420319
-0.132191201871
-0.133075403967
-0.133954032677
-0.134809437456
-0.135648857363
-0.136445988975
-0.136921216487
-0.138014753295
-0.138342795163
-0.138608894289
-0.138975000022
-0.139058204368
-0.13895814295
-0.138712866183
-0.138213516114
-0.137515859617
-0.136647996964
-0.135673392758
-0.134644502081
-0.133623374547
-0.132666385224
-0.131830415171
-0.131173097512
-0.130728837551
-0.130454508262
-0.130363476022
-0.13065174002
-0.131609517321
-0.133282866847
-0.135226048623
-0.136699748792
-0.138075182637
-0.140726158527
-0.122587790498
-0.122585172875
-0.122578642993
-0.122568799869
-0.122558236883
-0.12254583377
-0.122530620033
-0.122511938021
-0.122491183051
-0.12246483415
-0.122437262376
-0.12241065619
-0.122385313958
-0.122361175318
-0.122332295375
-0.122305015434
-0.122280827854
-0.122258723173
-0.122238220756
-0.12222117418
-0.122208941672
-0.122203656503
-0.122207789922
-0.122226469865
-0.122265308144
-0.122324270997
-0.122390914615
-0.122469830762
-0.122573720811
-0.122704776363
-0.122863388942
-0.123054264497
-0.123278570605
-0.123538914646
-0.123836859016
-0.12417320078
-0.124550662421
-0.124972433142
-0.125441643059
-0.125960792229
-0.126532562183
-0.127159465348
-0.127842004987
-0.128577726596
-0.129362928518
-0.130199438357
-0.131091187686
-0.132027920514
-0.13298169345
-0.133929547819
-0.13483256923
-0.135765397247
-0.136736127458
-0.136861219347
-0.137024089542
-0.137432732647
-0.137986564338
-0.138296382931
-0.138157927691
-0.137738500036
-0.137041951251
-0.136075673554
-0.134922654699
-0.133623348039
-0.132231731524
-0.130796315333
-0.129373096775
-0.128013518889
-0.126768616824
-0.125695520424
-0.124853915093
-0.124258467068
-0.123912716235
-0.123976376831
-0.124753536597
-0.126459033151
-0.128704907421
-0.130528799478
-0.133428771548
-0.144259383376
-0.122570335772
-0.122567005231
-0.1225586889
-0.122547413474
-0.122534889634
-0.122519396052
-0.122500236199
-0.122477583354
-0.12245110342
-0.122417990003
-0.12238340749
-0.12234951922
-0.122316502006
-0.122283030007
-0.122244927079
-0.122208085774
-0.122173351044
-0.12213983766
-0.122107157471
-0.122076968296
-0.122050239254
-0.122029077943
-0.122016413706
-0.122015184805
-0.122031087201
-0.122068855404
-0.122122368171
-0.122184168022
-0.122266273762
-0.122376024834
-0.122513960454
-0.122685824647
-0.122893983119
-0.123139751801
-0.123426016164
-0.123753031765
-0.124123177921
-0.124540130525
-0.125007462251
-0.125528205198
-0.126105124097
-0.126741548142
-0.127439299988
-0.128197034529
-0.129011825736
-0.129887790388
-0.130833648779
-0.131841932578
-0.132887941762
-0.133948910515
-0.134857425358
-0.135870716828
-0.136187669391
-0.136420094465
-0.136603250525
-0.137028072568
-0.137397709181
-0.137303255586
-0.136730079603
-0.135829378569
-0.134621022434
-0.133153751942
-0.131502595369
-0.129714387873
-0.127836831105
-0.125912087124
-0.123985819813
-0.122098698962
-0.120285716687
-0.118584011466
-0.11705340925
-0.11576549703
-0.114713552623
-0.114013470849
-0.113944274272
-0.114854598887
-0.116562243623
-0.117599656817
-0.117538720455
-0.122100703363
-0.122556031873
-0.122551990103
-0.122542202689
-0.122529331989
-0.122514232304
-0.122495265119
-0.122471700907
-0.122444669417
-0.12241200709
-0.122371625459
-0.122329313752
-0.122287291926
-0.12224561715
-0.122201652382
-0.122153638231
-0.122106163323
-0.122059793448
-0.122013406798
-0.12196739269
-0.121923014341
-0.121880689675
-0.121842177233
-0.121811159993
-0.121788756492
-0.121780102116
-0.121791753563
-0.12182261631
-0.121867091862
-0.121928929451
-0.122016591208
-0.122132963194
-0.122281674326
-0.122469636276
-0.122698453845
-0.122971589286
-0.123288352504
-0.123649924447
-0.124060671974
-0.124524860739
-0.125046262496
-0.1256279621
-0.126273425823
-0.126986258254
-0.12776683616
-0.128613346428
-0.129529042992
-0.13052736998
-0.13161789333
-0.132788733062
-0.134062800006
-0.134799820415
-0.135212860841
-0.135592299583
-0.136082714803
-0.136374709645
-0.136578105978
-0.136453702046
-0.135785157652
-0.13464989547
-0.133165467163
-0.13137442681
-0.129337920852
-0.127112043405
-0.124734440609
-0.122238603039
-0.119653138762
-0.11700799926
-0.114330267219
-0.111642117233
-0.108967069738
-0.106355467115
-0.103881715963
-0.101505668529
-0.0991541006187
-0.0969809909618
-0.0954424304392
-0.094453066885
-0.0902297948616
-0.0747646991791
-0.0561197897288
-0.122545457429
-0.122540703265
-0.122529644109
-0.122514901236
-0.122496808163
-0.122473963892
-0.122445942674
-0.122413946642
-0.122374433353
-0.122326540722
-0.122275913588
-0.122225075633
-0.122174066748
-0.122119440844
-0.122059887266
-0.122000477403
-0.121941245307
-0.121880584453
-0.121819368041
-0.12175925583
-0.121699848633
-0.121642373888
-0.121590968172
-0.12154603242
-0.121511677226
-0.121494724533
-0.121498831282
-0.121522440721
-0.121566516053
-0.121627905886
-0.121718222732
-0.121842180916
-0.122006414425
-0.122212140372
-0.122466895923
-0.122772404131
-0.123124981267
-0.123528880635
-0.123988552934
-0.124508916736
-0.125094414587
-0.125748857285
-0.126476606971
-0.127278374356
-0.12815096086
-0.129099839408
-0.13014727498
-0.131336087372
-0.132715040138
-0.134947416202
-0.134391218553
-0.13465308959
-0.135250548341
-0.135805817647
-0.13586710269
-0.135637756475
-0.134890734121
-0.133572951304
-0.131794541712
-0.129655607482
-0.127210482735
-0.124516948729
-0.121615258496
-0.118532603709
-0.115291785934
-0.111913911959
-0.108421735945
-0.104835991158
-0.101169627789
-0.0974238737834
-0.0935948227498
-0.0896696043076
-0.085557889163
-0.0809306768515
-0.0756896866376
-0.0702205139109
-0.0639360624028
-0.0499810667689
-0.0124575398236
0.0424692255845
-0.122539484273
-0.122533965789
-0.12252161543
-0.12250465353
-0.122483173734
-0.122456155441
-0.12242372154
-0.122385791496
-0.122339065685
-0.122283765479
-0.122224177294
-0.122163705027
-0.122102541025
-0.122036547033
-0.121964409472
-0.121891823691
-0.121818554732
-0.121741901321
-0.121663654354
-0.121585938894
-0.121507286853
-0.121428916964
-0.121354619736
-0.121285581415
-0.121224238834
-0.121176752018
-0.121150520048
-0.121146473175
-0.121168458163
-0.121206373544
-0.12126761556
-0.121360486233
-0.121497535362
-0.121681141427
-0.121911914161
-0.122199024583
-0.122540548232
-0.122936696846
-0.123391866207
-0.123910325074
-0.124497788157
-0.125160439053
-0.125901947649
-0.126720695763
-0.127610384066
-0.128577923314
-0.129645584331
-0.130843132898
-0.131934241096
-0.132824441656
-0.133482206305
-0.133722565885
-0.134972997019
-0.135217591976
-0.134873753299
-0.134041890755
-0.132591549379
-0.130568813108
-0.128090814041
-0.125250523393
-0.122107747959
-0.118716909101
-0.115115613316
-0.111333845474
-0.107397952778
-0.103331262268
-0.0991511239327
-0.0948613557547
-0.0904427701244
-0.085840956301
-0.0809530550731
-0.0756204145654
-0.0696267546593
-0.0625697327664
-0.0541721796888
-0.0445660479722
-0.0320006936751
-0.00690671152036
0.0476959225457
0.117236876689
-0.122538852994
-0.122532584236
-0.122518936217
-0.122499355276
-0.122473985365
-0.12244254549
-0.12240540681
-0.12236065012
-0.122306703679
-0.122244104514
-0.122174914767
-0.122103989772
-0.122031747031
-0.12195343682
-0.121867730691
-0.121780729501
-0.121691992451
-0.121597222673
-0.121500410786
-0.121403248818
-0.12130245854
-0.121201327747
-0.121101908094
-0.12100631242
-0.120916545295
-0.120837101929
-0.120777126474
-0.120739705129
-0.120730062354
-0.120743499985
-0.120777638758
-0.120837633116
-0.12093837909
-0.121092555786
-0.12130084369
-0.121565773703
-0.121891276182
-0.122276649747
-0.122725460008
-0.123242088025
-0.123831539899
-0.124500147609
-0.125251410093
-0.12608116678
-0.126984754103
-0.127978568259
-0.129096826197
-0.130393250712
-0.130736679234
-0.130453902045
-0.13097154144
-0.132885246187
-0.13429417956
-0.13411633033
-0.133262042754
-0.131717558394
-0.129514828456
-0.126752093558
-0.123553269133
-0.120011329955
-0.116194059107
-0.112160134629
-0.107953999675
-0.103612005415
-0.099160347065
-0.0946107713752
-0.0899529142439
-0.0851467130112
-0.0801176319013
-0.0747481255876
-0.068850056235
-0.0621258270256