/*--------------------------------*- C++ -*----------------------------------*\
| =========                 |                                                 |
| \\      /  F ield         | OpenFOAM: The Open Source CFD Toolbox           |
|  \\    /   O peration     | Version:  v1806                                 |
|   \\  /    A nd           | Web:      www.OpenFOAM.com                      |
|    \\/     M anipulation  |                                                 |
\*---------------------------------------------------------------------------*/
FoamFile
{
    version     2.0;
    format      ascii;
    class       volScalarField;
    location    "568";
    object      pa;
}
// * * * * * * * * * * * * * * * * * * * * * * * * * * * * * * * * * * * * * //

dimensions      [0 2 -2 0 0 0 0];


internalField   nonuniform List<scalar> 
6400
(
-0.119192944029
-0.119194315057
-0.119198168547
-0.119205681625
-0.119216816077
-0.119231571377
-0.119250015353
-0.119272805458
-0.119300503152
-0.119333882965
-0.119376086716
-0.119428974017
-0.119491439642
-0.119563806202
-0.11964752087
-0.119744428999
-0.119855915462
-0.119982409394
-0.120123347497
-0.120276229125
-0.120438141524
-0.120610236645
-0.120797342717
-0.121004805749
-0.121236458406
-0.121492986275
-0.121772829192
-0.122074972859
-0.122399959154
-0.122749114167
-0.12312369226
-0.123523196354
-0.123943800926
-0.124381459864
-0.124834734363
-0.125301633768
-0.125782655485
-0.126283786109
-0.126804299528
-0.127335951495
-0.127879977234
-0.128449320935
-0.129051193095
-0.129678378249
-0.130320726465
-0.130971256164
-0.131624540572
-0.132276485855
-0.13292328802
-0.133561658127
-0.134189039475
-0.134799675193
-0.135383455225
-0.135926729086
-0.136427196321
-0.136891701077
-0.137314735208
-0.137681306604
-0.137984694691
-0.138233604397
-0.138434510774
-0.138590429249
-0.138696319635
-0.138782692576
-0.13889329829
-0.139067788488
-0.139295672194
-0.139526444177
-0.13972179007
-0.13987843348
-0.140006114051
-0.140115943121
-0.140215008453
-0.140300860118
-0.140375749436
-0.140439467519
-0.140491368296
-0.14052490008
-0.14054611337
-0.140555050675
-0.119191023275
-0.119192483288
-0.119195958289
-0.119203283436
-0.119215103677
-0.119230518653
-0.119249108609
-0.119270981362
-0.119297630425
-0.11933082351
-0.119372702415
-0.119424846944
-0.119487204822
-0.119559774563
-0.119643253665
-0.119739053664
-0.119849800651
-0.119976312468
-0.120117633193
-0.120270547247
-0.120430948566
-0.120601397661
-0.120787771619
-0.120994775077
-0.121226237362
-0.121482813808
-0.121762363049
-0.122064383899
-0.122389504986
-0.122738647175
-0.12311267554
-0.123511923526
-0.123932782613
-0.124369956664
-0.124822923238
-0.125289691653
-0.125770187741
-0.126271464631
-0.126792805482
-0.127324878653
-0.1278674682
-0.128436533321
-0.129041534952
-0.129671156061
-0.130314628268
-0.130966485459
-0.131621173284
-0.132274903777
-0.132923347494
-0.133561552091
-0.134186812421
-0.134798096592
-0.135388337698
-0.135934539211
-0.136436998264
-0.136905625905
-0.137326413835
-0.137688457364
-0.137992053885
-0.138240565508
-0.138437022862
-0.138593354446
-0.138704012839
-0.138795002753
-0.138909377097
-0.139084146471
-0.139314891234
-0.139544944983
-0.139738313647
-0.139893975374
-0.140020999074
-0.140130814631
-0.140230665157
-0.140317778611
-0.140391542632
-0.140452894306
-0.140500690935
-0.140532902539
-0.140553368737
-0.140560173711
-0.119185572121
-0.11918794487
-0.119191018879
-0.119197680139
-0.119209012949
-0.119226059912
-0.119245989034
-0.119266939821
-0.119291999201
-0.119324131848
-0.119365236401
-0.119416603174
-0.119478483898
-0.119550755361
-0.119633522741
-0.119726603401
-0.119834951432
-0.119963207436
-0.120105435577
-0.120256943531
-0.120414379056
-0.120580810018
-0.120765535988
-0.120973086868
-0.121204076168
-0.121459371324
-0.121738566019
-0.122040641605
-0.122365628989
-0.122714431426
-0.123087776203
-0.123486496475
-0.123907868876
-0.12434351326
-0.124794193838
-0.125261742331
-0.12574159205
-0.126241153058
-0.126762953323
-0.127297441166
-0.12784546279
-0.128418324399
-0.129022209332
-0.129650807348
-0.130295041849
-0.130948448978
-0.13160574951
-0.132262493237
-0.132914290193
-0.133556859425
-0.134186769214
-0.134799677379
-0.135386496091
-0.135936554207
-0.136449090818
-0.136920068228
-0.137338032325
-0.137698253239
-0.13800114264
-0.138249398827
-0.13844829301
-0.138603678513
-0.138718755487
-0.1388212136
-0.138950063765
-0.139132554806
-0.139354213572
-0.13957594192
-0.139769311247
-0.139926531895
-0.14005518976
-0.140165662548
-0.140262305721
-0.140345025467
-0.140416283299
-0.140474824961
-0.140518499218
-0.140548192289
-0.140566619977
-0.140573205812
-0.119177869274
-0.1191802468
-0.119182755968
-0.1191887978
-0.119198600111
-0.119215225166
-0.119240019421
-0.119260782913
-0.119283688119
-0.119314068758
-0.119353950193
-0.119404443489
-0.119465732994
-0.119536892454
-0.119618242473
-0.11971225279
-0.11982145018
-0.119946917999
-0.120083604854
-0.120227599863
-0.120381373237
-0.12054875988
-0.120733640817
-0.120940046712
-0.121170141807
-0.12142469386
-0.121703376766
-0.122005155037
-0.122329862684
-0.122678043948
-0.123050971163
-0.123448994193
-0.123869566924
-0.124306164951
-0.124753186983
-0.125216580398
-0.125698598999
-0.126197550964
-0.126716408266
-0.127253540061
-0.127808422744
-0.128386679259
-0.128992275614
-0.129621577913
-0.130267499594
-0.130923632537
-0.131584537202
-0.132245467254
-0.132901927964
-0.133549574381
-0.134184158787
-0.134800328788
-0.135390371908
-0.135946536292
-0.136464165644
-0.136936254959
-0.137353941213
-0.137713451218
-0.138015675937
-0.138264071649
-0.138464403056
-0.138623977115
-0.138753691951
-0.138877112511
-0.139016587747
-0.139192215185
-0.139409784494
-0.139629607908
-0.139822934444
-0.139980773895
-0.140107406914
-0.140211788235
-0.140301874082
-0.140383954446
-0.140455713568
-0.14051020602
-0.140547843932
-0.140576129141
-0.140595541088
-0.140603474241
-0.119165824232
-0.119166226297
-0.119169252472
-0.119175272414
-0.119185859167
-0.119200825576
-0.119222971048
-0.11924563058
-0.119269589523
-0.119299642658
-0.119338264666
-0.119387804358
-0.119448372179
-0.119520603393
-0.119604009117
-0.1196967144
-0.119800982046
-0.119918080989
-0.120047192199
-0.120187845156
-0.120340565393
-0.120506987279
-0.120690931174
-0.12089629462
-0.121125159072
-0.121378600321
-0.121656241917
-0.121957426592
-0.122281674475
-0.122629399392
-0.123001266791
-0.123399351585
-0.123821004194
-0.124253263085
-0.124697355489
-0.125157777463
-0.12563615211
-0.126135529948
-0.126656280104
-0.127197123604
-0.127757957752
-0.128341723588
-0.128950618737
-0.129582260652
-0.130231098826
-0.130891119787
-0.131556795353
-0.132223161322
-0.132885590521
-0.133539555969
-0.134180283625
-0.13480202906
-0.13539776998
-0.135960344303
-0.136482921379
-0.136957185161
-0.137375575769
-0.137735354375
-0.138038218103
-0.138288833538
-0.138494483448
-0.138664860995
-0.138814201158
-0.138957296505
-0.139102859616
-0.139276871508
-0.13948887538
-0.1397047931
-0.139896834926
-0.140052698459
-0.140173176385
-0.140270547255
-0.140360915775
-0.140446544457
-0.14051544883
-0.140564249278
-0.140599589516
-0.140630909033
-0.140649598352
-0.14065572429
-0.119143920205
-0.119143765322
-0.119148750842
-0.119154746402
-0.119165942506
-0.119181206173
-0.119201640567
-0.119224162762
-0.119249561866
-0.119279881625
-0.119316831753
-0.11936530146
-0.11942814488
-0.11950242619
-0.119583624853
-0.11967181359
-0.119769613008
-0.11988013475
-0.120004313908
-0.120141393698
-0.120290803912
-0.120455010028
-0.120637568415
-0.120841690773
-0.121069156214
-0.121320648869
-0.121597003088
-0.121897139071
-0.122220890318
-0.122568032223
-0.122939597653
-0.12333613091
-0.123754353029
-0.124187387337
-0.124626227177
-0.12508063605
-0.125557623929
-0.126058394759
-0.126581968703
-0.127127112441
-0.127693708823
-0.128283280453
-0.128896828711
-0.129532452839
-0.130185627884
-0.130850818158
-0.131522524772
-0.132195651316
-0.132865448266
-0.133527214121
-0.134175855448
-0.134805416195
-0.135408952139
-0.135978876489
-0.136506977363
-0.136984616142
-0.137405405533
-0.137767756534
-0.138074414452
-0.138331367571
-0.138547196064
-0.138732932571
-0.138904286155
-0.139060649119
-0.139212568339
-0.139391228737
-0.139602314601
-0.139811373517
-0.139996130511
-0.140143475067
-0.140255639794
-0.140352904516
-0.140449881233
-0.140534800177
-0.140598237341
-0.140642816541
-0.140679800047
-0.140710206115
-0.140725858744
-0.140732104202
-0.119110774602
-0.119113067846
-0.11912119743
-0.119129883678
-0.119138711026
-0.119153767195
-0.119174714853
-0.119197360776
-0.119223452024
-0.119253970645
-0.119291739615
-0.119339537073
-0.119403386119
-0.119475289215
-0.119552417722
-0.119635116884
-0.119727866367
-0.119834550179
-0.119954866347
-0.120086525454
-0.120231648695
-0.120393393557
-0.120573865835
-0.120775791062
-0.121001290375
-0.121251758989
-0.121524931662
-0.121823620392
-0.122146843017
-0.122494920242
-0.122865126536
-0.123258137108
-0.123673445391
-0.124099553884
-0.124535284899
-0.124987178194
-0.125463855828
-0.125966376333
-0.126493158384
-0.127042854307
-0.127615250463
-0.12821104887
-0.128830431735
-0.129471598025
-0.130130633987
-0.130802421778
-0.131481572337
-0.132162951232
-0.132841736746
-0.133513095603
-0.134171703609
-0.13481133726
-0.135424693775
-0.136003456616
-0.136538631803
-0.137021868298
-0.137448042515
-0.137816781923
-0.138131802859
-0.138399716404
-0.13862991285
-0.138834297541
-0.139022178636
-0.139191538835
-0.139361376935
-0.139545375353
-0.139752833145
-0.139948966761
-0.140118148923
-0.140253715598
-0.140364168781
-0.140469710898
-0.14057039832
-0.140650457951
-0.14070854903
-0.14075117787
-0.14078861303
-0.140813240294
-0.140822798576
-0.140827778739
-0.119072035704
-0.119076635778
-0.119085723717
-0.119097913649
-0.119106934744
-0.11912245935
-0.119142066265
-0.119164947457
-0.119191959412
-0.119220091461
-0.119259839191
-0.119310500685
-0.119371327568
-0.119439292531
-0.119511391491
-0.119588558374
-0.119678100346
-0.119781887038
-0.119896691374
-0.120022651688
-0.120163264862
-0.12032168039
-0.120499398874
-0.120699333892
-0.120922881011
-0.121170518526
-0.121442413493
-0.121735549505
-0.122059481191
-0.122409360879
-0.122777124445
-0.123162465688
-0.123572338026
-0.1239932703
-0.124424695527
-0.124876987885
-0.125354778266
-0.12585916339
-0.126389184349
-0.126943604296
-0.127522013519
-0.128124573059
-0.128750901691
-0.129399109309
-0.130065593671
-0.130745553728
-0.131433759417
-0.132125124842
-0.132814813295
-0.133497893701
-0.134168824413
-0.134821017152
-0.13544659319
-0.136036526802
-0.136581539178
-0.137074000147
-0.137510042658
-0.137889988351
-0.138217364982
-0.138498514504
-0.1387432916
-0.13896355064
-0.139167587931
-0.139360729382
-0.139547235058
-0.139740441978
-0.139936911488
-0.14011573953
-0.140267431555
-0.140394793582
-0.140510075115
-0.140623668474
-0.140722558008
-0.14079733902
-0.140850847086
-0.140891500515
-0.140920974611
-0.140935426133
-0.140935213136
-0.140934360154
-0.119029856799
-0.119035744693
-0.119044586593
-0.119054045664
-0.119065551856
-0.119084271193
-0.119102991477
-0.119125466394
-0.119154467325
-0.11918333106
-0.119219209732
-0.119271318036
-0.119330898889
-0.11939388822
-0.11946124065
-0.119535756934
-0.119621200938
-0.11971994365
-0.119829104821
-0.119950062712
-0.120086008186
-0.120239866967
-0.120413094508
-0.120609493162
-0.120833358991
-0.121076446926
-0.121346048977
-0.121639731477
-0.121958448431
-0.122304324529
-0.122670839535
-0.123056160321
-0.123452409919
-0.123865604853
-0.124296638761
-0.124750160753
-0.125229487524
-0.125735922643
-0.126269225169
-0.12682852022
-0.127413274015
-0.12802322961
-0.128657589089
-0.129314307293
-0.129989895115
-0.130679764652
-0.131378877248
-0.132082270149
-0.132785137851
-0.133482470254
-0.134168508401
-0.134836247191
-0.135477199618
-0.136081821663
-0.136640951399
-0.137147835602
-0.137599352551
-0.137994843124
-0.138335979365
-0.138629133804
-0.138886710511
-0.139123275012
-0.139348036676
-0.139563897279
-0.139768349185
-0.139974475303
-0.140167898811
-0.140319645449
-0.140451219415
-0.140573108229
-0.140695398858
-0.140813173686
-0.140909487651
-0.140980531249
-0.141029757191
-0.141062281378
-0.141075088929
-0.141072101341
-0.14105868891
-0.141048924385
-0.118983792269
-0.118990407856
-0.119000307224
-0.119008537015
-0.119020642202
-0.119038647194
-0.119056985132
-0.119078190753
-0.119105171344
-0.119139494538
-0.119174466416
-0.119223869511
-0.119281159283
-0.119340033516
-0.119402047679
-0.119474470621
-0.119557438849
-0.119649817878
-0.119752284548
-0.119867945276
-0.119999533064
-0.120148980718
-0.120317294831
-0.120506969289
-0.120729068029
-0.120972601953
-0.121232198095
-0.121525090907
-0.12184040244
-0.12218435417
-0.122547176509
-0.122925756255
-0.123316412916
-0.123722045065
-0.124151287048
-0.124605912201
-0.125086987383
-0.125595677742
-0.12613234388
-0.126696638741
-0.127288104041
-0.127906174667
-0.1285496796
-0.129216380551
-0.129902807695
-0.13060451859
-0.131316674966
-0.132034496099
-0.132753252577
-0.133467878826
-0.134172417972
-0.134859491054
-0.135520119267
-0.136144494564
-0.136723798113
-0.137251838398
-0.137724936094
-0.138138166944
-0.138490427857
-0.138792847023
-0.139064299765
-0.139322215705
-0.139571815922
-0.139808851345
-0.140029927013
-0.140237672214
-0.140420380505
-0.140567150368
-0.140673315791
-0.140788807914
-0.140916890955
-0.14103891077
-0.141137075042
-0.141207957403
-0.141252010761
-0.141267757014
-0.141255402023
-0.14122585799
-0.141193986832
-0.141173457679
-0.118932014634
-0.118938114772
-0.118948302397
-0.118957811609
-0.118972806563
-0.118987247768
-0.11900436103
-0.119024808352
-0.119046200068
-0.119081733365
-0.119119530886
-0.119166482231
-0.11922097774
-0.119277500039
-0.119335952638
-0.119404121914
-0.119483425771
-0.1195701477
-0.119666138135
-0.119775376728
-0.1199016929
-0.120047280054
-0.120213475934
-0.120396282809
-0.120607594249
-0.120853193872
-0.121110875853
-0.121395973958
-0.121706359409
-0.122037887026
-0.122399943684
-0.12277450222
-0.12315912158
-0.123560716163
-0.123988471377
-0.124443582184
-0.124926234657
-0.125437320115
-0.125977486176
-0.126546890693
-0.127145400951
-0.127772329012
-0.128426137567
-0.129104339737
-0.129803439427
-0.130519132314
-0.131246803812
-0.131981882009
-0.132719749385
-0.13345533651
-0.134182585928
-0.134893896064
-0.135580039376
-0.136231198443
-0.136838774132
-0.137395906602
-0.137896461917
-0.138326312824
-0.138684701683
-0.138996131001
-0.139287192501
-0.139575393415
-0.139855615519
-0.140113090607
-0.140338664294
-0.140534313535
-0.140698896401
-0.140839530166
-0.140921579023
-0.14103366987
-0.141170714234
-0.141306147296
-0.141415566047
-0.141491833141
-0.141529238456
-0.141520878069
-0.141472120799
-0.141401691629
-0.141339058185
-0.141302282716
-0.118873249857
-0.118877706163
-0.118884668687
-0.118897039481
-0.11891521252
-0.118928215433
-0.118944301713
-0.118965176755
-0.118983574637
-0.119014494692
-0.119053513664
-0.119098674837
-0.119149713874
-0.119204157784
-0.119262434011
-0.119326500659
-0.119400125725
-0.119480720204
-0.119570507558
-0.119672762408
-0.11979138459
-0.119930147736
-0.120096227838
-0.120279647549
-0.120478520309
-0.120715570555
-0.120972670948
-0.121246595712
-0.121556475275
-0.121884103185
-0.122232471871
-0.122597731724
-0.122977900845
-0.123379537864
-0.123806785376
-0.124261990424
-0.124745951274
-0.125259505787
-0.125803406245
-0.126378088615
-0.12698389247
-0.127620361927
-0.128285672676
-0.128976961786
-0.129690676644
-0.130422713942
-0.131168731062
-0.131924375342
-0.132685158267
-0.133446119529
-0.134201291495
-0.134943167301
-0.135662707443
-0.13635020288
-0.136996298927
-0.137590097554
-0.138124723379
-0.138571331908
-0.1389308388
-0.139253410123
-0.139572950167
-0.139905980115
-0.14022849623
-0.140508062481
-0.140728225444
-0.140902288708
-0.141028575516
-0.141117729015
-0.141177767309
-0.141286849567
-0.141455629726
-0.141627964256
-0.141766430414
-0.141856894189
-0.141887948046
-0.141845960723
-0.141740613969
-0.141596852586
-0.141478497207
-0.141412014537
-0.118807586668
-0.118810526404
-0.118813203934
-0.118826658193
-0.118843552915
-0.11885812921
-0.118874242859
-0.118895279895
-0.118914294135
-0.118941564637
-0.118978551089
-0.119020913801
-0.119067866165
-0.119117782629
-0.119175650034
-0.119238397811
-0.119306767874
-0.119381148308
-0.119464773219
-0.119560273479
-0.119670349303
-0.119798790785
-0.119957857469
-0.120146316885
-0.120340850058
-0.120561433172
-0.12081716196
-0.121084898801
-0.121379426162
-0.121702553484
-0.122044473825
-0.122402519178
-0.12277701142
-0.123177139017
-0.123604115524
-0.124059516881
-0.124544610925
-0.125060505483
-0.125608377525
-0.126188798489
-0.126802257144
-0.127448786341
-0.128126679463
-0.128832698393
-0.12956310637
-0.130314068406
-0.131081623683
-0.131861634352
-0.132649753088
-0.133441284483
-0.134230728828
-0.135011292667
-0.135774793554
-0.136511352426
-0.137207771276
-0.137840184983
-0.138426446703
-0.13890239179
-0.139253743459
-0.139585634133
-0.139941572083
-0.140349929102
-0.140766973518
-0.141120344292
-0.141319679434
-0.141460919849
-0.141524355971
-0.1414849827
-0.141365859994
-0.141491257925
-0.141725246829
-0.141982884879
-0.142176176851
-0.142303413263
-0.142344336599
-0.14226174018
-0.142069371792
-0.141794658879
-0.14158342183
-0.141466423889
-0.118735891033
-0.118738991123
-0.118743168534
-0.118751195511
-0.118764036003
-0.118778935089
-0.118795146598
-0.118814684559
-0.11883615594
-0.118860694742
-0.118894777816
-0.118933767043
-0.11897662729
-0.119021622047
-0.119074401286
-0.119135668509
-0.119200791749
-0.119270210807
-0.1193478652
-0.119436692071
-0.119538785117
-0.119656622041
-0.119803839876
-0.119990319324
-0.120187459802
-0.120394661095
-0.120641758788
-0.120907367875
-0.121186876845
-0.121497533843
-0.121829051764
-0.122179904838
-0.122553454013
-0.122952500336
-0.1233787887
-0.123834194375
-0.124320482524
-0.124838737903
-0.125390410765
-0.125976869569
-0.126598702242
-0.127256004432
-0.12794741348
-0.128669665796
-0.129418893032
-0.130191566184
-0.130984196079
-0.131792826495
-0.132613187745
-0.133441167265
-0.134272398709
-0.1351018963
-0.135923541514
-0.136726587506
-0.13748679069
-0.138138721885
-0.138848568805
-0.139464635058
-0.139717473987
-0.140031220424
-0.140404796752
-0.14090288096
-0.141092971454
-0.141092305589
-0.141123646145
-0.141154473841
-0.14108966212
-0.141013793573
-0.141265730038
-0.141703003427
-0.142324985358
-0.142820187969
-0.143077085392
-0.143221224768
-0.143232661524
-0.143049918701
-0.142680452836
-0.141979242052
-0.141605417512
-0.141404627103
-0.118656875066
-0.118660256099
-0.118667443215
-0.118670057524
-0.118678797527
-0.118692456236
-0.118708087743
-0.118726786845
-0.11875110132
-0.118771879517
-0.11880227996
-0.11883766344
-0.118876643128
-0.118917705351
-0.118964918961
-0.119021828347
-0.119082848405
-0.119147527093
-0.11921925775
-0.119301075821
-0.119395385428
-0.119504002786
-0.119636866629
-0.119812557981
-0.120014004666
-0.120214282605
-0.120443070489
-0.120708401899
-0.120984607619
-0.121274740028
-0.121592611627
-0.121936093502
-0.122306175318
-0.122703427785
-0.123128778515
-0.123584042291
-0.124071180154
-0.124591930352
-0.125147676311
-0.125740143634
-0.126370792021
-0.12703982882
-0.127745875568
-0.128485748603
-0.129255772037
-0.130053007055
-0.130874516347
-0.131716329976
-0.132574065933
-0.133444568975
-0.134325904546
-0.135216858641
-0.136115352683
-0.137008906348
-0.137844747368
-0.138412814189
-0.139433900376
-0.13944074113
-0.139413942432
-0.139430332255
-0.139437756691
-0.139526961826
-0.139740661207
-0.139869772722
-0.139739069551
-0.139466262668
-0.139124614278
-0.138774431643
-0.138500980148
-0.138530465169
-0.138753183344
-0.139254363233
-0.139904805522
-0.140620169661
-0.141238899722
-0.141544824106
-0.141566873053
-0.141841985814
-0.141492707716
-0.141137238658
-0.118569373768
-0.118572127847
-0.118577633415
-0.118579695826
-0.118585987732
-0.118598348013
-0.118612338892
-0.118628447176
-0.118654081099
-0.118673728165
-0.118700575816
-0.118732489427
-0.118768013734
-0.11880588609
-0.118847923677
-0.118898828834
-0.118954345334
-0.119013649204
-0.11907904286
-0.119153387622
-0.119239222423
-0.119338854094
-0.119458977547
-0.119619242675
-0.119816965362
-0.120018640826
-0.120228002595
-0.120475365948
-0.12074910028
-0.121032643821
-0.121336925888
-0.121670496561
-0.122034786879
-0.122428833008
-0.122852485348
-0.123306949514
-0.123794616186
-0.124317474933
-0.124877449966
-0.125476260748
-0.126115965492
-0.126797522955
-0.12751958462
-0.128278584746
-0.129071029862
-0.129895348441
-0.130749793647
-0.131629708483
-0.132529277556
-0.133447298721
-0.134387232899
-0.135354263412
-0.136355415328
-0.13739033034
-0.138484721109
-0.13849093906
-0.138645104402
-0.138934809386
-0.138909319037
-0.138689072059
-0.13831811811
-0.137889628835
-0.137473177198
-0.137015601796
-0.136401460806
-0.135696110642
-0.134972749097
-0.134271307849
-0.133664233651
-0.133375825394
-0.1334508167
-0.133962798452
-0.134852388715
-0.136039527141
-0.137382071319
-0.138628330939
-0.139471286361
-0.139765550749
-0.140126326671
-0.140209608705
-0.118474661652
-0.118476704859
-0.118481371073
-0.11848209873
-0.118487114697
-0.118497536363
-0.11850925916
-0.118521113858
-0.118543194898
-0.118564007791
-0.118588661802
-0.118617412449
-0.11864991294
-0.118685734257
-0.11872205089
-0.118766440574
-0.118815653956
-0.118868959109
-0.118927348519
-0.118993639813
-0.119070230805
-0.119159793127
-0.119267751035
-0.119410866728
-0.119595738775
-0.119800909806
-0.120000483794
-0.120225611458
-0.120481722762
-0.120757171614
-0.121052523704
-0.121378715427
-0.121736598549
-0.122126182015
-0.122547424508
-0.123000814394
-0.123488345557
-0.1240129453
-0.124576846816
-0.125182193231
-0.125831336374
-0.12652590268
-0.127265214337
-0.128045231043
-0.128861873642
-0.129715649669
-0.130606962034
-0.131528966086
-0.132472544867
-0.133440902914
-0.13444563163
-0.135498485021
-0.136603282925
-0.137857559102
-0.137942465736
-0.138079507485
-0.138219242148
-0.138330632056
-0.138163046379
-0.13772042096
-0.137046129681
-0.136223054593
-0.135320641761
-0.134382708924
-0.133409438078
-0.132405959664
-0.131339015836
-0.130192647794
-0.129067858102
-0.128185473768
-0.12771179504
-0.127728467461
-0.128273784338
-0.129349712075
-0.130933180531
-0.132876025715
-0.13474013296
-0.136100219313
-0.137676315721
-0.140167343623
-0.118374332158
-0.118375336205
-0.118377011366
-0.118377510923
-0.118382868279
-0.11839118962
-0.118400857643
-0.118409179995
-0.118426628952
-0.118445389075
-0.118466944177
-0.118491826643
-0.118520301909
-0.118554239184
-0.118585372757
-0.118623106961
-0.118665651454
-0.11871285362
-0.118763757415
-0.11882144762
-0.118888075967
-0.118966465991
-0.119061691396
-0.119187409818
-0.119354359623
-0.119553882261
-0.119754954405
-0.119963485029
-0.120198130503
-0.120456741567
-0.120740684918
-0.121057908865
-0.121407962286
-0.121791878138
-0.122210004323
-0.122661827429
-0.123149257713
-0.123675168712
-0.124242830522
-0.124854530166
-0.125513121386
-0.126221463629
-0.126979568544
-0.127782986595
-0.128624652595
-0.129506606969
-0.130437107636
-0.131408035793
-0.132396616179
-0.133412913277
-0.134485253687
-0.135628050351
-0.136877580829
-0.136921260763
-0.137139275535
-0.137563058136
-0.137693511689
-0.137482305489
-0.136941855364
-0.136129230473
-0.135090844905
-0.133891900155
-0.132591667493
-0.13124220858
-0.129869000491
-0.128469659224
-0.127008677103
-0.125479656636
-0.123970860283
-0.122662489494
-0.121747100173
-0.121317565876
-0.121426621827
-0.122143653576
-0.123556633147
-0.125683757407
-0.12810317422
-0.130034337013
-0.13302697174
-0.143453274829
-0.118270140822
-0.118270123854
-0.11826844878
-0.118269065217
-0.118274188854
-0.118280041082
-0.118287135984
-0.118293320292
-0.118304895525
-0.118319410781
-0.118336378178
-0.118356215251
-0.118378881937
-0.11840731091
-0.118435293831
-0.118467026874
-0.118502565813
-0.118542996179
-0.118586713808
-0.118635768773
-0.118692056975
-0.11875812817
-0.118839866497
-0.118947773022
-0.119093037665
-0.119275631197
-0.119475173139
-0.119674872747
-0.119891800711
-0.120133597231
-0.120401789375
-0.120706317149
-0.121047315844
-0.121423049751
-0.12183670696
-0.122286321512
-0.122772724156
-0.12329975287
-0.123871053028
-0.124489533363
-0.125157827492
-0.125879706025
-0.126656790683
-0.127485841957
-0.128359711241
-0.129278843426
-0.130248738205
-0.131253065626
-0.132272115895
-0.133335467971
-0.134475299434
-0.135732664386
-0.135675128448
-0.135847173147
-0.136545091568
-0.136917760692
-0.136751157896
-0.136137712611
-0.135154227254
-0.133899647079
-0.132435451347
-0.130816941156
-0.129088696082
-0.127285985902
-0.125423952765
-0.123497909882
-0.12148930936
-0.119405161948
-0.117314633893
-0.115358705168
-0.113723400637
-0.112559319342
-0.111881675973
-0.111742955085
-0.112277959537
-0.113692069283
-0.11577269763
-0.117140623117
-0.117286953212
-0.121377948902
-0.118163323418
-0.118162624564
-0.11815915503
-0.118159727094
-0.118162652853
-0.118165001278
-0.118167704148
-0.118171901265
-0.118177144105
-0.118186223275
-0.118197700158
-0.118211706952
-0.118228008068
-0.118248266539
-0.118271956929
-0.118297957853
-0.118326246673
-0.11835848192
-0.118394406511
-0.118434936422
-0.11848102158
-0.118533991154
-0.118601235558
-0.118691069181
-0.11881359755
-0.118973092904
-0.119158022741
-0.119350185837
-0.1195520641
-0.119777382982
-0.120031959822
-0.120319585162
-0.120647470948
-0.121014178672
-0.121422790711
-0.121869871538
-0.122354665368
-0.122881984673
-0.123456161422
-0.124080996265
-0.124759533098
-0.125495740134
-0.126294435759
-0.127155661756
-0.128071659741
-0.129032752565
-0.130037505412
-0.131070611265
-0.13209886849
-0.133190243394
-0.134432764335
-0.134342751553
-0.13441970701
-0.135250556137
-0.13595314779
-0.13594011635
-0.135309067803
-0.134210399926
-0.132742503403
-0.131001123466
-0.129044272293
-0.126914401354
-0.124639725431
-0.122238069643
-0.119713299489
-0.11705983159
-0.114272139991
-0.11136714154
-0.108401799031
-0.105482217572
-0.10276023709
-0.100378213007
-0.0982986912532
-0.0964180592149
-0.0947962287452
-0.0937940378379
-0.0932858298094
-0.0895127184139
-0.0744378580627
-0.0557851740111
-0.118053454772
-0.118052248814
-0.118047926334
-0.118048298196
-0.118048428403
-0.118046674676
-0.118044218932
-0.11804521084
-0.11804297427
-0.118045900356
-0.118051367859
-0.118058988495
-0.118068688672
-0.118081162751
-0.118097573956
-0.118116794342
-0.118137399163
-0.118160467512
-0.118186631852
-0.118217664219
-0.118253342387
-0.118292728382
-0.118343949033
-0.118415275839
-0.118514927824
-0.11864879185
-0.118813364445
-0.118993827839
-0.119187872539
-0.119393387247
-0.119629853855
-0.119900961005
-0.120211990104
-0.120561943105
-0.120959869739
-0.12140521344
-0.121889368706
-0.122417183029
-0.122993100826
-0.123622678244
-0.12431112681
-0.12506339076
-0.125887601971
-0.126785600417
-0.127743764505
-0.128751712002
-0.129809346755
-0.130901831217
-0.131900510108
-0.133010495013
-0.133025226744
-0.133040466146
-0.133851501421
-0.134787327243
-0.135048604544
-0.134486983105
-0.133298122373
-0.13164196791
-0.129625540093
-0.127327467704
-0.124791813709
-0.122046987502
-0.119110361147
-0.115993006504
-0.112699484906
-0.10923155538
-0.105594607859
-0.10180816751
-0.0979111307749
-0.0939613720204
-0.0900283237718
-0.0861574947643
-0.0822594426554
-0.0779910561408
-0.0732115529694
-0.0682379961281
-0.0624341343123
-0.0489444949296
-0.0119582602813
0.0423626246301
-0.11793906641
-0.117937297988
-0.117932747856
-0.117932750309
-0.117929948432
-0.1179240272
-0.117917163717
-0.117913051606
-0.11790281407
-0.11789897366
-0.117897704061
-0.117898161723
-0.117900526973
-0.117904632203
-0.117912204109
-0.117923356008
-0.117936008928
-0.117948751227
-0.117963393489
-0.117983193805
-0.118007245312
-0.118032614904
-0.118065850886
-0.118117876863
-0.118194676333
-0.118301350752
-0.118440732891
-0.118600427667
-0.118783752409
-0.118977527699
-0.119192921727
-0.119440379897
-0.119733534793
-0.120071409245
-0.120451573914
-0.120886169638
-0.121368576159
-0.121896731458
-0.122475438493
-0.123109047839
-0.12380509628
-0.124574343971
-0.125426728293
-0.126359895353
-0.127357613344
-0.128424326434
-0.129585607216
-0.130833500248
-0.131606446265
-0.131858430437
-0.131867997039
-0.132554436792
-0.13354940185
-0.134046498092
-0.133664607857
-0.132460508193
-0.130645433998
-0.128373169162
-0.125745323974
-0.122826765082
-0.11965434069
-0.116253587957
-0.112644963314
-0.10884709206
-0.104875340646
-0.100740717619
-0.0964496043344
-0.0920054239012
-0.0874071552471
-0.0826406383153
-0.0776578393133
-0.0723489865998
-0.0665138470537
-0.0597299188613
-0.0517013765942
-0.0425183911548
-0.0303885818242
-0.00576781088101
0.0481844194906
0.116953651347
-0.117817774734
-0.117815436523
-0.117810623972
-0.117809889923
-0.117803620547
-0.117794371508
-0.11778340234
-0.117772732692
-0.117755544551
-0.117745385902
-0.117736764548
-0.117729229886
-0.117723325385
-0.117718021148
-0.117715296625
-0.117716516333
-0.117720614043
-0.117721761782
-0.117723811566
-0.117730662973
-0.117740496872
-0.117751934323
-0.117766055336
-0.117796654408
-0.117850513245
-0.117929753965
-0.118040655677
-0.118173481589
-0.118333613887
-0.11851698082
-0.1187186081
-0.118942839136
-0.119205872455
-0.119523789423
-0.119892983364
-0.120313513126
-0.120788372475
-0.12131377242
-0.121893073383
-0.122531017715
-0.123235329762
-0.12401997066
-0.124894672118
-0.125851976463
-0.126890499928
-0.128057412384
-0.12947816504
-0.131646443041
-0.131027014027
-0.13108463184
-0.131460750405
-0.132412010836
-0.13300781365
-0.132827662872
-0.131706379574
-0.12979864971
-0.127311608547
-0.124388050765
-0.121121492484
-0.117572943625
-0.113783911523
-0.109788523374
-0.105617198507
-0.101295747484
-0.0968404475481
-0.0922525857112
-0.0875142548621
-0.08258758199
-0.0774152549514
-0.0719129436116
-0.0659355382189