/*--------------------------------*- C++ -*----------------------------------*\
| =========                 |                                                 |
| \\      /  F ield         | OpenFOAM: The Open Source CFD Toolbox           |
|  \\    /   O peration     | Version:  v1806                                 |
|   \\  /    A nd           | Web:      www.OpenFOAM.com                      |
|    \\/     M anipulation  |                                                 |
\*---------------------------------------------------------------------------*/
FoamFile
{
    version     2.0;
    format      ascii;
    class       volScalarField;
    location    "654";
    object      p;
}
// * * * * * * * * * * * * * * * * * * * * * * * * * * * * * * * * * * * * * //

dimensions      [0 2 -2 0 0 0 0];


internalField   nonuniform List<scalar> 
6400
(
0.147428913293
0.147431964489
0.14744068381
0.147457750855
0.147483136357
0.147516793452
0.147558701958
0.147609945103
0.147671469841
0.147744827379
0.147836108673
0.147948549436
0.148079476415
0.148228812263
0.148398461356
0.148590950273
0.148807914737
0.1490493003
0.149313012906
0.149593678329
0.149885666725
0.150190392333
0.150515262439
0.15086807489
0.151253697518
0.151672006865
0.15211952375
0.152593588675
0.153093737323
0.153620547305
0.154174400916
0.154753326882
0.155351275188
0.155962088415
0.156582948227
0.157211018286
0.157846553003
0.15849555768
0.159156652596
0.159820678451
0.160488508538
0.161172648579
0.161879461852
0.162600816224
0.163325598695
0.164046081903
0.164756389196
0.165452011742
0.166128843745
0.166783303707
0.16741244959
0.168010940148
0.168569979184
0.16907876286
0.169535361036
0.169944671359
0.170302868305
0.170600661317
0.170836080019
0.171017116744
0.171150889047
0.171242304209
0.171296063539
0.171326660218
0.171346569705
0.171357838217
0.171353051244
0.171330486521
0.171295904685
0.171254995111
0.171210120326
0.171161338036
0.171108726245
0.171056832303
0.171006605433
0.17096058725
0.170920826615
0.170894129308
0.170876704641
0.17086930628
0.147424468696
0.147427715177
0.147435643774
0.147452314423
0.147479179127
0.147514268016
0.147556642991
0.147606183541
0.147665726763
0.147738879632
0.147829808476
0.147941203845
0.148072403119
0.148222668984
0.14839248666
0.148583615944
0.148799812646
0.149041863037
0.14930690893
0.149588163138
0.149878219542
0.150180799965
0.150505021167
0.150857795352
0.151243857725
0.151662918491
0.152110754308
0.152585412664
0.153086510846
0.153614070183
0.154168017643
0.154747372029
0.155346311187
0.155957225665
0.156578195095
0.157206523609
0.157841936451
0.158491436958
0.159153703933
0.159818563077
0.160485678018
0.1611703146
0.161880527511
0.162604469048
0.163330588026
0.164052547064
0.164764415663
0.165461936351
0.166140575347
0.166795472181
0.167423665664
0.168023281106
0.168587282973
0.169098363977
0.169556654429
0.16996886984
0.170325592601
0.170620344267
0.17085526027
0.171035373617
0.171166379494
0.171257108083
0.171311302906
0.171342909089
0.171364413336
0.171376666557
0.171371103909
0.171345422406
0.171307238469
0.171262956915
0.171214996401
0.171163124534
0.17110699589
0.171051158515
0.170999167189
0.17095283747
0.170914869908
0.170888217248
0.170870916069
0.170865071205
0.147411951964
0.147417309764
0.147424519713
0.147439864084
0.147465844321
0.147504845104
0.147550613723
0.147598718811
0.147655405846
0.147726948065
0.147817049223
0.147927872787
0.148059324891
0.148210369807
0.148380237986
0.148567997459
0.148781824311
0.149028605971
0.149296719095
0.149576601794
0.14986248084
0.150159799992
0.150482937354
0.150837987472
0.151224955625
0.151643883656
0.152092921159
0.152569386392
0.153072058907
0.153600915154
0.154155686228
0.154736096664
0.15533713556
0.155947745516
0.156567484708
0.157197498894
0.157833161917
0.158481908077
0.159145438507
0.159813518555
0.160486808666
0.161176138694
0.161886455124
0.162610417359
0.1633381154
0.164062343162
0.164777343728
0.165478305351
0.166160610788
0.166819913402
0.167452651633
0.168054434462
0.168617034329
0.169131667059
0.169597614527
0.170011793622
0.170366496992
0.170659468937
0.170892871199
0.171071207607
0.171201043707
0.171289461989
0.171343485182
0.171379153548
0.171405902674
0.171418550434
0.171409331431
0.171377906786
0.171332240267
0.171280202844
0.171224600715
0.171165072595
0.171103282341
0.171043532386
0.170988301161
0.170940501382
0.170903137534
0.170876731793
0.170860167508
0.170854128278
0.147394026402
0.147399530644
0.147405712683
0.147419874366
0.147442802986
0.14748171191
0.14753930757
0.147587583089
0.147640091454
0.147708825982
0.147797553843
0.147908045956
0.148040100274
0.14819112899
0.148360904469
0.148552934794
0.148770920241
0.149014967352
0.149274825923
0.1495435513
0.149825277354
0.150126112505
0.150451691734
0.150807376768
0.151195446377
0.151615825499
0.152066728566
0.152545384298
0.153050323764
0.153580985175
0.154137790327
0.154719757554
0.155322362705
0.15593605157
0.156553379593
0.157180509235
0.157819634533
0.158469048803
0.159131073132
0.159803295342
0.160484819067
0.161180781421
0.161894116402
0.16262006054
0.163350584465
0.164078548796
0.16479801336
0.165503881601
0.166191448383
0.166856286254
0.167494127293
0.168099766486
0.168666163991
0.169186712158
0.169657497204
0.17007310201
0.170427601656
0.170719430802
0.170951023263
0.17112727349
0.171255078768
0.171342627752
0.171400788656
0.171444451826
0.17147590713
0.171486415284
0.171471112844
0.171429985592
0.171371828523
0.171306882142
0.171239841391
0.171170945645
0.17110125401
0.171032349095
0.170969202234
0.170919187284
0.170883006805
0.170855022904
0.170835880329
0.170828082168
0.147365895408
0.147367150949
0.147374749241
0.147389340421
0.147414836203
0.147451668026
0.147504617318
0.147557390943
0.147613193694
0.147682508091
0.147770178866
0.14788057096
0.148013800493
0.148170270125
0.14834753026
0.148540342905
0.148751521735
0.148982554717
0.149231507397
0.149497307673
0.149780293312
0.150082542283
0.150409667643
0.15076696298
0.15115658625
0.151578803893
0.152031731436
0.152513140804
0.153020983882
0.153554658057
0.154113542832
0.154699044715
0.155305713027
0.155917180064
0.156533428218
0.157159255972
0.157796390605
0.158448045656
0.159114013961
0.159792099784
0.160481589459
0.161184865774
0.161903191776
0.162633067989
0.16336795932
0.164101104295
0.164826461682
0.165538730087
0.166233087311
0.166904942413
0.167549573377
0.168161469787
0.168734170176
0.169261380581
0.16973733248
0.1701555215
0.170510767809
0.170802173164
0.171032690169
0.171207991723
0.17133604684
0.171426694626
0.171491886983
0.171541865312
0.17157202233
0.171580330539
0.171559794982
0.171506871752
0.171431003448
0.171346765335
0.171262809873
0.171179228582
0.171093275075
0.171008243466
0.170936685224
0.170883826449
0.17084434352
0.170809987518
0.170789167972
0.170782083786
0.147314794102
0.147314998837
0.147327411087
0.147342699152
0.147371026388
0.147410238412
0.147459928976
0.147513565665
0.147574142604
0.147645786307
0.147732137262
0.147843189908
0.14798533875
0.14815054694
0.148327213604
0.148513946155
0.148715238228
0.148937130707
0.149181175356
0.149444790538
0.149725913941
0.1500283101
0.150357190819
0.150716683526
0.151108458772
0.151532325497
0.151988035925
0.152472385642
0.152984242324
0.153521632043
0.154084978839
0.1546726085
0.155279060052
0.155894206296
0.156507168201
0.157128674242
0.157766874417
0.158422667917
0.15909419002
0.159779259724
0.160477042592
0.161188412214
0.161913476003
0.162649259331
0.163390245432
0.164130132808
0.164862900226
0.165583125108
0.166285885567
0.166966446956
0.16761982479
0.168240351505
0.168821621699
0.1693568754
0.169839073956
0.170261272841
0.170618959178
0.170911950265
0.171143927387
0.171321554959
0.171453797463
0.171551297633
0.171625213598
0.171676435111
0.171705028672
0.171708524669
0.171680044853
0.171612706874
0.171514116218
0.171403502997
0.171294664151
0.171185131705
0.171071432235
0.170967184742
0.170885823189
0.170826935952
0.17077955339
0.170741412146
0.170721013551
0.170712871881
0.147237010107
0.14724307208
0.147263274647
0.147285748277
0.147310586436
0.147350470842
0.147402211789
0.14745819656
0.147522427036
0.147596989076
0.147687583711
0.147802567805
0.147952613429
0.148117280965
0.148289442896
0.148468174488
0.148663082628
0.148882490947
0.149124486841
0.149383059016
0.149661343353
0.149964319403
0.150294742793
0.15065592334
0.151050154279
0.151478017754
0.151935031682
0.152422966054
0.152939592762
0.153484154182
0.15405166264
0.154639562357
0.155246739919
0.155857354489
0.156469416353
0.157091305956
0.157732544692
0.158393541105
0.159071642193
0.159764508688
0.16047113744
0.161191502007
0.161924900018
0.162668499216
0.163417405211
0.164165725607
0.16490754374
0.165637411672
0.166350364595
0.167041582184
0.167705917818
0.168337514519
0.168929661867
0.16947489636
0.169965370286
0.170394139212
0.17075742503
0.171055821425
0.171293613145
0.171477855231
0.171617826768
0.171724025924
0.171803642325
0.171855179943
0.171889728438
0.171888746118
0.171843606738
0.171753469408
0.171625812946
0.171480637541
0.171333007655
0.171181121965
0.171030153552
0.170903119982
0.170808265666
0.17073938417
0.170684311939
0.170647712771
0.170631111914
0.170623464586
0.147144930356
0.147156606753
0.147179710228
0.147211736814
0.147239228345
0.147280976669
0.147331469102
0.147390463666
0.147459366409
0.147532217452
0.147631343385
0.147759148715
0.147907711423
0.148069128125
0.148234570707
0.148406196079
0.148600189656
0.148820141573
0.149057295636
0.149310875058
0.149586951901
0.149890028627
0.150221816752
0.15058579052
0.150983432833
0.151414381439
0.151875630472
0.152363677366
0.152887838276
0.153442089321
0.154011403979
0.154596467884
0.155201678821
0.155809924557
0.156420803233
0.157047189609
0.15769380555
0.158360827023
0.159046166259
0.15974757102
0.160463783867
0.16119416583
0.161937438635
0.162690711688
0.163449421012
0.164207990101
0.164960660872
0.165702050264
0.166427217868
0.167131312479
0.167809071839
0.168454402416
0.169060143226
0.169618187033
0.170120298055
0.170559875874
0.170933877844
0.171243240288
0.171491642995
0.171685282518
0.171833270946
0.171945817469
0.172028686609
0.172085625471
0.172122455197
0.172128240875
0.172064368058
0.17194142954
0.171774247673
0.171580351397
0.171374664017
0.171161385612
0.170962439244
0.170804638645
0.17069163891
0.170612175658
0.170558982725
0.17053056685
0.170522919883
0.170520661065
0.147043297158
0.14705831304
0.147081883688
0.147109764743
0.147144482176
0.147194798011
0.147245897674
0.147306823419
0.147383799748
0.147462309537
0.14755964414
0.147696390651
0.147847897191
0.14800390448
0.148163539713
0.148334896569
0.148528361047
0.148745396975
0.148978021162
0.149228769899
0.149503259308
0.149805542375
0.150137136649
0.150502897828
0.150908200417
0.151341011599
0.151806934688
0.152303061043
0.152828982882
0.153384611387
0.15395976867
0.154550542401
0.1551450635
0.155748675058
0.156364169686
0.156997019231
0.157650249465
0.158324199245
0.159017483137
0.159728177996
0.160454850365
0.161196385851
0.161951062906
0.162715846278
0.163486302442
0.164257074194
0.16502259741
0.165777630284
0.166517313451
0.167236810923
0.167930792093
0.168592954467
0.169215756266
0.169790715531
0.170309622754
0.17076637761
0.171158173723
0.171484860416
0.171747164894
0.171950023979
0.17210460193
0.17222427737
0.172313586389
0.172373064134
0.172402461804
0.172410604066
0.172355563753
0.172192877715
0.171972872211
0.17171213404
0.171421772056
0.171121097964
0.170854157366
0.170652729011
0.170518350787
0.170437746694
0.170401531182
0.170392866319
0.170399644379
0.170406812893
0.146930448276
0.146947590559
0.14697503392
0.147002082011
0.147039600687
0.147090530248
0.14714403067
0.147205381793
0.147282807031
0.147378065505
0.147480733761
0.147617940207
0.147770495792
0.14792292737
0.148077053327
0.148251231698
0.148447953003
0.148659999713
0.148887177373
0.149135517703
0.149409626606
0.149712257661
0.150044081797
0.150408566189
0.15082033933
0.151261900126
0.151724805695
0.152228184955
0.152759500361
0.15331972019
0.153898004225
0.154486611825
0.155080017389
0.155680838827
0.156300385011
0.156940491829
0.157601406848
0.158283263791
0.158985289915
0.159706051165
0.16044413072
0.16119805925
0.161965713426
0.162743856935
0.163528079708
0.164313177241
0.165093791657
0.165864877889
0.166621704142
0.167359494718
0.168072935123
0.168755672942
0.169400077325
0.169997745737
0.170540866665
0.171023579881
0.171441782245
0.17179168525
0.172068437403
0.172278971337
0.172441214857
0.172575646572
0.172676542729
0.172734176446
0.17274683178
0.172725335187
0.172669612176
0.172529656333
0.172243844783
0.171890445183
0.171481933952
0.171052125636
0.170678170985
0.170413840688
0.170261225042
0.170201615198
0.170204882713
0.170232255109
0.17026050354
0.170279960645
0.146801470985
0.146817806804
0.146847700359
0.146879876226
0.146925837246
0.146971744253
0.147026144506
0.147090145182
0.147160403931
0.147264771838
0.147381648928
0.147519797283
0.14767281572
0.147825938489
0.147979409687
0.148154395288
0.148352636085
0.148561622233
0.148784762262
0.14902984184
0.149302981845
0.149607487444
0.149944378026
0.150308856385
0.150715914968
0.151170615771
0.151642179616
0.152145406769
0.152678559663
0.153233755486
0.153819222682
0.154410718886
0.155002145222
0.155604946806
0.156229969048
0.156877591583
0.157546873005
0.158237594696
0.158949268176
0.159680920804
0.160431378922
0.161198997195
0.161981265649
0.162774680109
0.163574790356
0.164376528739
0.165174763664
0.165964664309
0.166741641959
0.167501038144
0.168237709886
0.1689455748
0.169617465296
0.170245732239
0.170823223118
0.171343168607
0.1717967392
0.17217521896
0.172466954357
0.172686114815
0.17286003911
0.173027981468
0.173152244947
0.173204915144
0.173184000864
0.173106208433
0.17299757372
0.17287336208
0.172609642326
0.172160000555
0.17158297792
0.17094069911
0.17038316205
0.170029727411
0.16987685
0.169877975663
0.169960287605
0.170048531481
0.170108629398
0.170146913994
0.146652550154
0.146665517949
0.146689428149
0.146730407056
0.146787016716
0.146833627842
0.146889523129
0.146960015324
0.147029089412
0.147130365451
0.147258239113
0.147400103892
0.147552981775
0.147708454279
0.147869005408
0.148046730886
0.148243717259
0.148449778572
0.148670524631
0.148912559445
0.149181989037
0.149484454747
0.149830766537
0.15020713884
0.150609087369
0.151063893377
0.151544372604
0.152045627443
0.152588668568
0.153149519469
0.153727234621
0.154314792531
0.154908527788
0.155519569771
0.156152230489
0.15680788246
0.157486153765
0.158186674103
0.158909027693
0.159652508775
0.160416316765
0.161198931335
0.16199752313
0.162808207208
0.163626451639
0.16444736922
0.165266090733
0.166077980376
0.166878561173
0.167663344322
0.168427583251
0.16916598498
0.169872749936
0.170541970985
0.171167082236
0.171737393656
0.172234007511
0.172653202893
0.172966791542
0.173196768503
0.173377119417
0.173622666653
0.173803172473
0.173852500309
0.173777412373
0.173615853396
0.17341331758
0.173232557971
0.17301263083
0.172567714313
0.171803588625
0.170768334934
0.169850059692
0.169380775275
0.169283924616
0.169429973639
0.169671079162
0.169862265705
0.169960872329
0.170033344538
0.14648327456
0.146493349584
0.146508399174
0.146554234325
0.146612061914
0.146666716291
0.146726925868
0.146804711866
0.146881574073
0.146982119186
0.147114881886
0.147259410133
0.147411841066
0.147565954907
0.14773594991
0.147923646681
0.1481200428
0.148323776017
0.148543403547
0.148784009485
0.149049627831
0.149345622031
0.149692548537
0.150090015879
0.150498974952
0.150942641137
0.151434867063
0.151942669081
0.152477712395
0.153042806794
0.153622676757
0.154208689395
0.154805103236
0.155423963124
0.156065669041
0.156730516209
0.15741858852
0.158129750973
0.15886390272
0.15962045243
0.160398736857
0.16119758892
0.162014180272
0.162844231654
0.163683020982
0.164525903338
0.165368357704
0.166205893471
0.167034026515
0.167848437587
0.168645061896
0.169420146309
0.170170596978
0.170893600363
0.17158240003
0.172217175813
0.172762896577
0.173272590003
0.173633046332
0.173875266818
0.174017695685
0.174530193061
0.174848263473
0.174869965314
0.174664024286
0.174336636824
0.173964500765
0.173637220857
0.173395492485
0.173155397832
0.172278273661
0.170548661892
0.168963729973
0.168350805359
0.168400335832
0.168837205693
0.169387198677
0.169738398037
0.169832580058
0.169977413257
0.146294697631
0.146306308757
0.146326498272
0.146361573784
0.146413977888
0.146474035706
0.146539803598
0.146621642591
0.146711106436
0.14681460731
0.14695128968
0.147098295425
0.147251746597
0.147405395437
0.147578166045
0.147775258779
0.147975748444
0.148181107961
0.148401433126
0.148642201213
0.148906248144
0.149196738347
0.149538816235
0.149948202568
0.150373510765
0.150815063132
0.151310814594
0.151827633058
0.152358826382
0.152921050296
0.153496223848
0.154082810159
0.154689300165
0.155317944485
0.15596942092
0.156644429377
0.15734346176
0.158066300627
0.158813103048
0.159583924504
0.160378184484
0.161194743412
0.162030967489
0.162882448942
0.163744311591
0.16461221209
0.165482080344
0.166349465591
0.167209616025
0.168058284587
0.168892376824
0.169710627018
0.170514297954
0.171305383898
0.1720749076
0.172791590554
0.173410477446
0.174181938065
0.174541430432
0.174668246737
0.174147144561
0.174294653128
0.174554483213
0.174611477941
0.174456097992
0.174195575705
0.173912900553
0.173669818791
0.173535488416
0.173784378635
0.173527325248
0.17037274477
0.166453834338
0.166038700776
0.166823302494
0.167965521655
0.169231111378
0.169797671338
0.169711474468
0.170053022372
0.146082240589
0.146095438951
0.146125780859
0.146151116411
0.146197086356
0.146258823118
0.146329155066
0.146416564989
0.146521103407
0.146627160075
0.146766676001
0.146916571212
0.14707265493
0.147229255839
0.147404329585
0.147605992601
0.147810977592
0.148020407386
0.148243301321
0.14848528323
0.148749664695
0.149038530693
0.149371994324
0.149779251137
0.150229537138
0.15067997936
0.151164401965
0.151696698056
0.152237647304
0.152784771123
0.153353864108
0.153945322657
0.154560727355
0.155199824327
0.15586231325
0.156548664934
0.157259539793
0.157995319341
0.158756106318
0.159542232258
0.16035382962
0.161189842331
0.162047562803
0.162922539634
0.163809985389
0.164706123226
0.165607516609
0.166509610903
0.167406833678
0.16829455466
0.16917110031
0.170038733465
0.170904238587
0.171775638973
0.172645850404
0.173521130558
0.173857184217
0.174061871208
0.174286446512
0.174431399737
0.174394286097
0.174337717674
0.174436989162
0.174441442821
0.174278904885
0.174007970049
0.173688653716
0.173360245754
0.173000638243
0.172495551223
0.170989654595
0.168535321568
0.166929822726
0.166862336508
0.167626504068
0.168771224347
0.170089715898
0.170878313052
0.169015866919
0.170353216363
0.145841567539
0.145854317287
0.145883835336
0.145911517613
0.145955354787
0.14601897434
0.146092009712
0.146180423092
0.146299402353
0.146416762846
0.146558990867
0.146712725177
0.146873281823
0.147035742724
0.147214970681
0.147419134431
0.147627674875
0.147841960414
0.148068572804
0.148312685262
0.148578010934
0.148867467061
0.149195309182
0.149595126462
0.150061575942
0.150530916521
0.151008434187
0.151534262289
0.152085751564
0.152638419446
0.153203460065
0.153796843223
0.154419815584
0.15506946675
0.155743652355
0.156442146475
0.157165935912
0.157915639312
0.158691754743
0.159494649079
0.160324911347
0.161182070522
0.162063395915
0.16296409037
0.163879463317
0.164806985793
0.165744602382
0.166687208023
0.167626822231
0.168558052817
0.169481960508
0.170404260343
0.17133474527
0.172288810704
0.173217511673
0.173419888412
0.173651479869
0.173914671572
0.174126031545
0.174250854522
0.174233212862
0.1741519324
0.174117600716
0.174027571504
0.173815491064
0.173498244094
0.173109338659
0.172662669389
0.172132244817
0.171370436616
0.170125697993
0.168575543171
0.167391080342
0.167027541302
0.167411649866
0.168256020004
0.169228961229
0.169645487763
0.170693086049
0.172211706273
0.145574529553
0.145586586761
0.145617556101
0.145646228504
0.145691051988
0.145755674461
0.145831036879
0.145917354339
0.1460397626
0.146173872847
0.146323911187
0.146483293921
0.146650317787
0.146822760762
0.147007186715
0.147213982801
0.147426080194
0.147645860624
0.147876964133
0.148124103916
0.148390994665
0.148681150706
0.149005677857
0.14939631516
0.149864156347
0.150361837829
0.15084990364
0.151363146885
0.151909664217
0.152464918237
0.153033647386
0.153633936453
0.154265518589
0.154925726832
0.155612201273
0.156324015766
0.157061644842
0.157826361337
0.158618945908
0.159440095866
0.160290544521
0.161170383836
0.162077442268
0.163006494853
0.163952353062
0.164914174393
0.16589254082
0.166881628406
0.167869292772
0.16884878672
0.169825649725
0.170807700273
0.171809717919
0.172768507963
0.173020151847
0.173255423924
0.173476833504
0.173699697161
0.173862858584
0.173937675229
0.173906460686
0.173801752274
0.17366657853
0.173469668146
0.1731716883
0.172770356961
0.172279283591
0.171701477196
0.171019395329
0.170150063806
0.168983413883
0.16762104262
0.166480188108
0.165939658123
0.166044808115
0.166636218158
0.167574949846
0.168825420632
0.170875862208
0.173116409228
0.145283722598
0.145294214845
0.145320983176
0.145353842619
0.145404423146
0.145470421959
0.145549846255
0.145636121255
0.145758614839
0.145903344282
0.146060755582
0.146225549193
0.146397834175
0.146583730153
0.146777212724
0.146987123934
0.147203637106
0.147430538501
0.147667412762
0.147918637624
0.148187947374
0.148479009786
0.148801567533
0.149184587979
0.149647524711
0.150163741127
0.150674104798
0.151184471317
0.151720375025
0.152272478463
0.152846600206
0.153454414735
0.15409523931
0.154766156906
0.155465661035
0.156192280538
0.156945394059
0.157726176417
0.158536590274
0.159377299885
0.160249421486
0.161153890703
0.162089051215
0.163049163753
0.164027165708
0.16502483864
0.166050430033
0.167096322673
0.168136926658
0.169166780881
0.170201363476
0.171255413692
0.172257584198
0.172545061449
0.172804768295
0.17303455483
0.173232911621
0.173396129716
0.17349398973
0.173503173788
0.17341385671
0.17323779512
0.172993196183
0.172671925371
0.172253640251
0.171730701222
0.171105115579
0.170374433669
0.169523833523
0.168529562049
0.167324753275
0.165967856657
0.164750892664
0.163934963057
0.163597232729
0.163706211271
0.16428128451
0.165454520469
0.167801915089
0.169812944502
0.144972649442
0.144981845494
0.145002983524
0.145040618779
0.145096213209
0.145163443206
0.145246293437
0.145336993373
0.145457240709
0.145608081828
0.145770843626
0.145939965809
0.146114881415
0.14630952601
0.146518012797
0.146734148067
0.146956195655
0.147191405081
0.147436893873
0.147694295621
0.147967708718
0.148260127501
0.148581931975
0.148959096987
0.149412051581
0.149928439001
0.150462380346
0.150986668494
0.151520592362
0.15207053432
0.152644809662
0.153258282216
0.153908251
0.154588833803
0.15530246475
0.156045305835
0.156814520233
0.157612982738
0.158442859746
0.159305183958
0.160200755244
0.161131015355
0.16209559623
0.16309025987
0.164109208852
0.16515399618
0.166229916448
0.167323901913
0.168417108047
0.169506955702
0.170611413205
0.171701792353
0.172014201034
0.172283958516
0.172530594764
0.17273517001
0.172885798514
0.172975082904
0.172986679007
0.17290470518
0.172722179617
0.172443036848
0.17207472361
0.171614588698
0.171051944649
0.170379030587
0.169592410831
0.168687033832
0.167652501456
0.166476844247
0.165144437132
0.163655719561
0.162158157005
0.160839921491
0.159758524399
0.158875556997
0.158128890672
0.15735609611
0.156118113807
0.153392728729
0.144642732564
0.144651765164
0.144671442592
0.144713600341
0.144769705585
0.144835947032
0.144917667729
0.145014544616
0.145132492761
0.145287127317
0.145454490885
0.145627937809
0.145806547393
0.146004593374
0.146226206997
0.146452517486
0.146682378497
0.146925632493
0.147180855089
0.147447421356
0.147728102911
0.148023249901
0.148345335687
0.148719142241
0.149162878891
0.149673084269
0.15021834693
0.150759588328
0.151294726957
0.151844528354
0.152425566873
0.153043087052
0.153700011756
0.154392154418
0.155120643685
0.155880230351
0.156667101591
0.157484730945
0.158335517395
0.159221017948
0.16014222053
0.16110087685
0.162099399145
0.163137800356
0.164207724342
0.165298549708
0.166414130091
0.16755467837
0.168717621899
0.16988313656
0.171083820487
0.171426334319
0.171705731295
0.171964443202
0.172180573943
0.172332680728
0.172410641472
0.172407414996
0.172312839502
0.172116871176
0.171814355029
0.171405786372
0.170893477134
0.170275499392
0.169545110405
0.168694919005
0.167718428634
0.166607980086
0.16535331828
0.163943658659
0.162378540455
0.160611558606
0.158656337089
0.156612584698
0.154461026103
0.1520382638
0.149066266307
0.145196213311
0.140311160499
0.139262869163
0.144290765235
0.144300268069
0.144321014526
0.144368021263
0.14442406456
0.144488602221
0.144566746897
0.144667752418
0.144781789776
0.144938603755
0.145110718817
0.14528877255
0.145472320506
0.145675171625
0.145905245258
0.146142105643
0.146381771138
0.146633806196
0.146897855208
0.147174609853
0.147465820368
0.147766248228
0.148089428556
0.148461898143
0.148898546667
0.149400471992
0.149947899547
0.150500925641
0.151048858716
0.151602178618
0.152188663056
0.152812733917
0.153474240466
0.154172285223
0.154912808528
0.155692292838
0.156500430558
0.157339591976
0.158212607941
0.159122522669
0.160071802884
0.16106308536
0.16210381473
0.163193964066
0.164310225502
0.165438351549
0.166593877633
0.167801675652
0.169087692547
0.170366402407
0.170757507203
0.1710604792
0.17133976264
0.171568923024
0.171727383303
0.17180244334
0.171785703481
0.171670869877
0.171451422624
0.171121285121
0.17067680425
0.170117012746
0.169441574136
0.168647777284
0.167729544526
0.166678705795
0.165485762447
0.164139050471
0.162623754538
0.160922029316
0.159015205393
0.156861900043
0.15434253032
0.151394310374
0.147890855672
0.143421535254
0.137132382858
0.127202179621
0.108461668105
0.0627340569678
0.143909224469
0.143919160625
0.143943106285
0.14399561343
0.144052514005
0.144116101885
0.144192982474
0.144295234092
0.144404838205
0.144561420273
0.144738017438
0.144920735057
0.145109400007
0.145317305615
0.145553928087
0.145800805848
0.146052655987
0.146314689294
0.146587014833
0.146873491823
0.147177364852
0.147486626673
0.147811453283
0.14818372934
0.148616251487
0.149109427017
0.149652289871
0.150206758172
0.150770797848
0.151341458307
0.15193242031
0.152558130619
0.153227642469
0.153937634748
0.154684598299
0.155478086359
0.156309213679
0.157172723705
0.158071737268
0.159008390436
0.159987295761
0.161018352376
0.162113278887
0.163256358143
0.164411356222
0.165576175732
0.166791410226
0.168115088558
0.169623235309
0.170043699333
0.170344292341
0.170652793878
0.170904471877
0.17107342687
0.171150614041
0.171126879294
0.17099500689
0.170750366578
0.170389164572
0.16990795113
0.169304176935
0.168576122399
0.167721678327
0.16673664224
0.16561375659
0.16434274253
0.162910270931
0.16129912939
0.159486858582
0.157444164356
0.155131977567
0.152501438043
0.149366266332
0.145463717277
0.140543790805
0.134015324819
0.12463939682
0.109993839759
0.0851913442691
0.0437986312052
0.143487603011
0.143497931241
0.143525054435
0.143583413742
0.143641150025
0.143707434776
0.143785145814
0.143887032355
0.143995772681
0.144153305505
0.144334533622
0.144521891407
0.14471557565
0.144928111467
0.145169610619
0.145424234961
0.145690496559
0.1459646982
0.146245980987
0.146541770259
0.1468584489
0.147181398573
0.147509760672
0.147881019341
0.148312158142
0.148798732133
0.149335373437
0.149886606579
0.150455446641
0.151047210562
0.151657269084
0.152288672259
0.152953397372
0.153670316901
0.154433792955
0.155241065839
0.156092070584
0.156980688492
0.157907345634
0.158874623653
0.159889982617
0.160973095888
0.1621281056
0.163319619226
0.164520425221
0.1657500512
0.167067764447
0.168430377466
0.169429912961
0.16970095381
0.169945885576
0.170198644624
0.170382277639
0.170464521119
0.170437235072
0.170293439884
0.170027790036
0.169637413523
0.169120431826
0.168475019806
0.167699232832
0.166790683681
0.165745678087
0.164558072722
0.163218361352
0.161713113938
0.160024308323
0.158128046689
0.155992432053
0.153574241746
0.150813192216
0.147620621578
0.143865507886
0.139175864819
0.13305885992
0.124948081023
0.113732712386
0.0975227361242
0.0730020257272
0.0391308509579
0.14301743993
0.143030082627
0.143058811869
0.143117427685
0.143179690176
0.143254506273
0.143337589772
0.143442694553
0.143558081897
0.14371271003
0.143898019402
0.144090166993
0.144289025285
0.144506067094
0.144751393633
0.145010036081
0.145287108153
0.145577238897
0.145870675742
0.14617752232
0.146505654152
0.146846031229
0.147186365575
0.14755400026
0.147983584791
0.148466265999
0.148997315662
0.14954561603
0.150112803478
0.150716194423
0.151347593396
0.151997393147
0.152666476648
0.153380771798
0.154150359001
0.154974528121
0.155847318268
0.156762430991
0.157717600563
0.158718743251
0.159783601751
0.16093055471
0.162144543673
0.163390923432
0.164669621727
0.166029083393
0.167439641857
0.168525219816
0.169006317899
0.169259008306
0.16947760181
0.169659848148
0.169750650978
0.169724576213
0.169573329639
0.169292088894
0.168877885815
0.16832956318
0.167646612667
0.166828147327
0.165872358635
0.164776024692
0.163533785623
0.162137238785
0.160574034221
0.158826989031
0.156872960168
0.154681096132
0.152210096099
0.149403933408
0.146184983008
0.142442552516
0.138016001028
0.132636877564
0.125735604582
0.116586588901
0.104343965161
0.0876562302506
0.0640972958638
0.0342733703887
0.142503960846
0.142520427578
0.142549679815
0.142602363738
0.142672309377
0.142756349129
0.142847966215
0.142960926874
0.143089415775
0.14324074561
0.143427349358
0.143623707103
0.143828033858
0.144050030893
0.144299726823
0.14456300385
0.144845339346
0.145149683494
0.145458586938
0.145779895214
0.146119752709
0.146477208177
0.146840008104
0.147215172282
0.147636253224
0.148113813837
0.148639337747
0.14918538051
0.149749181561
0.150355135352
0.15099900752
0.151672840031
0.152358963649
0.153074285715
0.153843783448
0.154675751955
0.155567620421