/*--------------------------------*- C++ -*----------------------------------*\
| =========                 |                                                 |
| \\      /  F ield         | OpenFOAM: The Open Source CFD Toolbox           |
|  \\    /   O peration     | Version:  v1806                                 |
|   \\  /    A nd           | Web:      www.OpenFOAM.com                      |
|    \\/     M anipulation  |                                                 |
\*---------------------------------------------------------------------------*/
FoamFile
{
    version     2.0;
    format      ascii;
    class       surfaceScalarField;
    location    "978";
    object      phi;
}
// * * * * * * * * * * * * * * * * * * * * * * * * * * * * * * * * * * * * * //

dimensions      [0 3 -1 0 0 0 0];
oriented        oriented;


internalField   nonuniform List<scalar> 
12640
(
-2.51143464516e-07
2.51250616746e-07
-4.69294340857e-07
2.18266151372e-07
-6.51608180754e-07
1.82404745318e-07
-8.013454904e-07
1.4981910007e-07
-9.1285824421e-07
1.11578194165e-07
-9.86277862416e-07
7.34759587495e-08
-1.04035038988e-06
5.41246460645e-08
-1.11364487697e-06
7.33424172683e-08
-1.20701775914e-06
9.34206217174e-08
-1.29407590629e-06
8.71029414858e-08
-1.37277604341e-06
7.87418164681e-08
-1.45022509422e-06
7.74882011832e-08
-1.51817086058e-06
6.79834685281e-08
-1.57396377356e-06
5.5828569703e-08
-1.62447489413e-06
5.05457832044e-08
-1.67976971512e-06
5.5325544893e-08
-1.73583995026e-06
5.6100900303e-08
-1.78354121814e-06
4.7730803473e-08
-1.82234580328e-06
3.88373935352e-08
-1.85923772043e-06
3.69257907954e-08
-1.90461868373e-06
4.54165044799e-08
-1.95767775384e-06
5.30920139657e-08
-2.0098374673e-06
5.21920123937e-08
-2.05726048607e-06
4.74511217717e-08
-2.09942436726e-06
4.21911038914e-08
-2.13688679096e-06
3.74856433122e-08
-2.17098455796e-06
3.41206493932e-08
-2.20119933918e-06
3.02336306286e-08
-2.22706457126e-06
2.58839883428e-08
-2.24946823286e-06
2.24184751845e-08
-2.27007771206e-06
2.06245502836e-08
-2.2883401916e-06
1.82736110611e-08
-2.30338131579e-06
1.50524020764e-08
-2.31752386151e-06
1.41509134084e-08
-2.33111278385e-06
1.3599089696e-08
-2.34323987161e-06
1.2133964769e-08
-2.35437641894e-06
1.11449167201e-08
-2.36351018076e-06
9.13958311971e-09
-2.36905933884e-06
5.55619076599e-09
-2.37083328162e-06
1.77706920458e-09
-2.37039588043e-06
-4.33930077618e-10
-2.36652984687e-06
-3.86661583625e-09
-2.35653178564e-06
-9.99806252288e-09
-2.34177896992e-06
-1.47562044614e-08
-2.3237457505e-06
-1.8035814119e-08
-2.30195229247e-06
-2.17995805766e-08
-2.27585866017e-06
-2.60990244949e-08
-2.24470418305e-06
-3.11631420941e-08
-2.2082788557e-06
-3.64330715375e-08
-2.1681882152e-06
-4.01011142894e-08
-2.12631058621e-06
-4.18863317145e-08
-2.07995005895e-06
-4.63712721986e-08
-2.02332590074e-06
-5.66334879551e-08
-1.95717268557e-06
-6.61640372287e-08
-1.88145723549e-06
-7.57242186713e-08
-1.79468063996e-06
-8.67853677555e-08
-1.70311401964e-06
-9.15713716555e-08
-1.6082289185e-06
-9.48874867613e-08
-1.50341511236e-06
-1.04810696549e-07
-1.38844252613e-06
-1.14964074236e-07
-1.26705854773e-06
-1.21366924091e-07
-1.13078890647e-06
-1.362470327e-07
-9.6250675717e-07
-1.68257460293e-07
-7.71226385671e-07
-1.91263295689e-07
-6.06185638941e-07
-1.6502761909e-07
-4.87394194486e-07
-1.18783921265e-07
-3.91840529646e-07
-9.55456312553e-08
-3.05457992693e-07
-8.63724307716e-08
-2.2456621515e-07
-8.0878774508e-08
-1.48763309002e-07
-7.57883064099e-08
-8.32302073455e-08
-6.55170087282e-08
-3.28508840397e-08
-5.03625199679e-08
1.79061148667e-09
-3.46266834296e-08
2.40822099755e-08
-2.22780271832e-08
3.50869337965e-08
-1.09936623888e-08
3.84242692107e-08
-3.32487342548e-09
3.77507661713e-08
6.87368438684e-10
3.04850857707e-08
7.28501533634e-09
1.97591663065e-08
1.07210615185e-08
1.97761883603e-08
-1.34890565644e-07
3.86253664895e-07
-3.11791460312e-07
3.95261129037e-07
-4.78562324649e-07
3.49261799635e-07
-6.43566818372e-07
3.14891446082e-07
-8.3577792894e-07
3.03851427383e-07
-9.75698919039e-07
2.13454057287e-07
-1.05648656635e-06
1.34963417165e-07
-1.13338482521e-06
1.50295946371e-07
-1.21751404964e-06
1.77599879206e-07
-1.30547941934e-06
1.75117863938e-07
-1.38751942051e-06
1.60825196854e-07
-1.45640397507e-06
1.46415664327e-07
-1.51716480304e-06
1.28780768187e-07
-1.57291662573e-06
1.11617521082e-07
-1.62543875108e-06
1.03098901931e-07
-1.68174865868e-06
1.11670541082e-07
-1.7348960263e-06
1.09278181494e-07
-1.76999528257e-06
8.28660101273e-08
-1.80146824404e-06
7.0343293638e-08
-1.84434387149e-06
7.98409157938e-08
-1.89777254685e-06
9.8880338239e-08
-1.95769654066e-06
1.13055009782e-07
-2.0132197805e-06
1.0774557337e-07
-2.05827191859e-06
9.25367501368e-08
-2.09861705978e-06
8.25611174693e-08
-2.13790314579e-06
7.68002628162e-08
-2.17244659545e-06
6.86842100789e-08
-2.20184425562e-06
5.96554264365e-08
-2.22767599622e-06
5.17315124333e-08
-2.25048761402e-06
4.5249957096e-08
-2.27023307354e-06
4.03814756198e-08
-2.28726086082e-06
3.53167828702e-08
-2.3011984598e-06
2.89982198425e-08
-2.31463921094e-06
2.76049173971e-08
-2.32980271578e-06
2.87685006962e-08
-2.34253910428e-06
2.48825404199e-08
-2.35296630944e-06
2.15774317567e-08
-2.36358557171e-06
1.97690539533e-08
-2.37288779983e-06
1.48612397631e-08
-2.37645188556e-06
5.34838265384e-09
-2.36762131877e-06
-9.26537863913e-09
-2.35083243927e-06
-2.06525679421e-08
-2.33639099795e-06
-2.44437079099e-08
-2.32357861245e-06
-2.75687736762e-08
-2.3085396643e-06
-3.30815968331e-08
-2.29022502439e-06
-4.01175896782e-08
-2.26757209047e-06
-4.8761659574e-08
-2.24046766238e-06
-5.82741071761e-08
-2.2083325308e-06
-6.8580197261e-08
-2.16824804728e-06
-8.01943863841e-08
-2.11805346864e-06
-9.20941092147e-08
-2.06329197632e-06
-1.01142699924e-07
-2.01222541405e-06
-1.07713202951e-07
-1.95405446642e-06
-1.24345071843e-07
-1.88143578928e-06
-1.48354680942e-07
-1.80264880922e-06
-1.65579995772e-07
-1.7163396015e-06
-1.77887901819e-07
-1.61866646821e-06
-1.9256239317e-07
-1.51234908924e-06
-2.11126546166e-07
-1.39520321403e-06
-2.32100453014e-07
-1.25991928498e-06
-2.56637891756e-07
-1.11053409543e-06
-2.85612534808e-07
-9.40635426756e-07
-3.38135800631e-07
-7.55904387081e-07
-3.75974852884e-07
-5.85846269951e-07
-3.35077716615e-07
-4.50648205757e-07
-2.53974919852e-07
-3.54520165833e-07
-1.91667310353e-07
-2.76781807033e-07
-1.64101666532e-07
-2.02197443885e-07
-1.55452002245e-07
-1.29879515167e-07
-1.4809142737e-07
-6.67320023072e-08
-1.28648626161e-07
-1.88079670309e-08
-9.82707198924e-08
1.41204557914e-08
-6.7539628827e-08
3.54497099014e-08
-4.35922752627e-08
4.76192113174e-08
-2.31486842475e-08
5.25961624192e-08
-8.28635580779e-09
5.02829603836e-08
3.01638638174e-09
4.16600675409e-08
1.59176508032e-08
2.38205198581e-08
2.85916158404e-08
4.35844758392e-08
-1.69010003869e-07
5.55291268643e-07
-2.63188518404e-07
4.89517175585e-07
-4.56350420162e-07
5.42500532798e-07
-6.6923050845e-07
5.27838949754e-07
-8.62917634438e-07
4.97593502754e-07
-9.6844619975e-07
3.19031843219e-07
-1.0240522859e-06
1.90624454277e-07
-1.10906211854e-06
2.35362845724e-07
-1.20596243356e-06
2.74554922415e-07
-1.29901877714e-06
2.68224338266e-07
-1.38423120616e-06
2.46082576314e-07
-1.4564235968e-06
2.18646510359e-07
-1.51783225459e-06
1.90223772219e-07
-1.57513045506e-06
1.68947339972e-07
-1.62196336019e-06
1.49964509193e-07
-1.62827636131e-06
1.18015205239e-07
-1.61085397491e-06
9.18891826239e-08
-1.62903989043e-06
1.01085147617e-07
-1.69701321442e-06
1.38353705641e-07
-1.80139258343e-06
1.84257537176e-07
-1.90042485197e-06
1.97950960087e-07
-1.96376809857e-06
1.76432563843e-07
-2.01099812189e-06
1.55009365604e-07
-2.05863426423e-06
1.40202069355e-07
-2.10255813945e-06
1.26513799375e-07
-2.13958359702e-06
1.13850161654e-07
-2.17232820402e-06
1.01453144661e-07
-2.20188340508e-06
8.92305807926e-08
-2.2278529618e-06
7.77208450335e-08
-2.25077942914e-06
6.81917081588e-08
-2.26968838105e-06
5.93055236663e-08
-2.28615400965e-06
5.17941140446e-08
-2.30183606149e-06
4.46919612448e-08
-2.3120602332e-06
3.78381483058e-08
-2.32384998434e-06
4.05696406471e-08
-2.34163288965e-06
4.26736986396e-08
-2.35384253611e-06
3.37964282343e-08
-2.36202683234e-06
2.79596603564e-08
-2.37169077286e-06
2.4532071313e-08
-2.3774722452e-06
1.11325189852e-08
-2.37719800518e-06
-9.53692253308e-09
-2.37152016058e-06
-2.63314201774e-08
-2.36047261643e-06
-3.54918552213e-08
-2.34552742529e-06
-4.2518157535e-08
-2.32727167132e-06
-5.13414228262e-08
-2.3051954685e-06
-6.22013163242e-08
-2.27919554481e-06
-7.47689863604e-08
-2.24890671975e-06
-8.8573328851e-08
-2.21392512857e-06
-1.03571851613e-07
-2.17434954451e-06
-1.19782519379e-07
-2.13035181094e-06
-1.361036558e-07
-2.08008487463e-06
-1.51423004255e-07
-2.01913732873e-06
-1.68673058133e-07
-1.95061239859e-06
-1.92882888661e-07
-1.87979131537e-06
-2.1918632934e-07
-1.80231946284e-06
-2.43061204236e-07
-1.71293089755e-06
-2.67282157445e-07
-1.61154171841e-06
-2.93954001721e-07
-1.49895520005e-06
-3.23710198638e-07
-1.37417304853e-06
-3.56875196061e-07
-1.23591844991e-06
-3.94878814723e-07
-1.07309937117e-06
-4.48413811298e-07
-8.83816859191e-07
-5.27398825725e-07
-6.87123337882e-07
-5.72654544099e-07
-5.22674124351e-07
-4.99514298079e-07
-4.10845951633e-07
-3.65796032432e-07
-3.15860805831e-07
-2.86646031333e-07
-2.30843139945e-07
-2.49111949176e-07
-1.55815716172e-07
-2.30468907692e-07
-8.86608293474e-08
-2.15233010043e-07
-3.22952046486e-08
-1.84998065202e-07
1.10144195253e-08
-1.41562616034e-07
4.17783105023e-08
-9.82863241529e-08
5.79959868904e-08
-5.97935935058e-08
6.48229228704e-08
-2.99617025453e-08
6.55680945017e-08
-9.01704127543e-09
6.09240257062e-08
7.67693799162e-09
5.05249515266e-08
2.63395734578e-08
2.41719956887e-08
5.49247329268e-08
6.77725963838e-08
-1.23151782814e-07
6.78537786494e-07
-1.73747063497e-07
5.40163996136e-07
-3.8712852534e-07
7.55945248027e-07
-5.6519183073e-07
7.05960874378e-07
-5.95211444531e-07
5.27661217543e-07
-5.50945622187e-07
2.74795972686e-07
-7.39634042996e-07
3.79355149996e-07
-1.00527020992e-06
5.01058268343e-07
-1.16984913474e-06
4.39189434218e-07
-1.28187482523e-06
3.80299563293e-07
-1.37740745046e-06
3.41656682558e-07
-1.45825241356e-06
2.99525213547e-07
-1.51744146644e-06
2.49442745165e-07
-1.53110665244e-06
1.82641359544e-07
-1.5082218261e-06
1.27110013834e-07
-1.50636825105e-06
1.16195989575e-07
-1.56032650509e-06
1.45883206782e-07
-1.66356413767e-06
2.04360880898e-07
-1.77904966426e-06
2.53877329499e-07
-1.85941327215e-06
2.64659007017e-07
-1.91151067848e-06
2.50083908846e-07
-1.96436165607e-06
2.29318524545e-07
-2.01617778796e-06
2.06857381462e-07
-2.06166900265e-06
1.85723760978e-07
-2.10218545044e-06
1.67057096476e-07
-2.13856658416e-06
1.50257029401e-07
-2.17201913485e-06
1.34927920134e-07
-2.20198029624e-06
1.19213218959e-07
-2.22841499784e-06
1.04173402699e-07
-2.25034889049e-06
9.01419852495e-08
-2.27022335858e-06
7.91932244449e-08
-2.28526412048e-06
6.68470470335e-08
-2.29637421729e-06
5.58131252495e-08
-2.31453214618e-06
5.60078459553e-08
-2.33030861636e-06
5.63558861228e-08
-2.34344372108e-06
5.58190364891e-08
-2.36262666007e-06
5.29874460994e-08
-2.37706590108e-06
4.24063585684e-08
-2.38130466155e-06
2.87752707057e-08
-2.38092462731e-06
1.07564048517e-08
-2.37914360148e-06
-1.13166706721e-08
-2.37437357737e-06
-3.1100927684e-08
-2.36453405724e-06
-4.53339022992e-08
-2.34992986315e-06
-5.71258887319e-08
-2.33136614414e-06
-6.99115457582e-08
-2.30892960966e-06
-8.46451252824e-08
-2.28251549975e-06
-1.01192855857e-07
-2.25185024274e-06
-1.19248896717e-07
-2.21669199616e-06
-1.38742434101e-07
-2.17692729883e-06
-1.59559814958e-07
-2.13190041008e-06
-1.8114476914e-07
-2.0797773341e-06
-2.03560219045e-07
-2.01942528426e-06
-2.29039820851e-07
-1.95300383655e-06
-2.59317403459e-07
-1.88044597937e-06
-2.91755853623e-07
-1.79853968974e-06
-3.24975993632e-07
-1.70487806259e-06
-3.60949414276e-07
-1.59795731273e-06
-4.0087606466e-07
-1.47637271649e-06
-4.4529193491e-07
-1.33779866128e-06
-4.95442009225e-07
-1.17769369352e-06
-5.54973159372e-07
-9.96290828155e-07
-6.29801440395e-07
-8.19303034397e-07
-7.04368748256e-07
-6.55684752003e-07
-7.36252323342e-07
-4.88349826092e-07
-6.66838575779e-07
-3.52599853075e-07
-5.01538596473e-07
-2.51350122762e-07
-3.87890641177e-07
-1.6932110336e-07
-3.31134012468e-07
-1.00455304272e-07
-2.99324690611e-07
-3.87021706457e-08
-2.76970651956e-07
1.7139072965e-08
-2.40820741981e-07
5.66159237789e-08
-1.81020484044e-07
7.26261487651e-08
-1.14278508915e-07
7.67019479592e-08
-6.38563165702e-08
7.80080644344e-08
-3.12532000846e-08
7.3514179366e-08
-4.50915705074e-09
5.89870045584e-08
2.22150195427e-08
4.24921205126e-08
4.28298731598e-08
2.29204080921e-08
7.45241574376e-08
9.06775118406e-08
-3.2963649857e-08
7.11503039453e-07
-1.53528979335e-07
6.60764320608e-07
-3.2723645415e-07
9.29695885038e-07
-4.67572358405e-07
8.463310222e-07
-4.65937866736e-07
5.260619735e-07
-5.76175834699e-07
3.85069468046e-07
-8.00319398558e-07
6.03549172002e-07
-9.70647881547e-07
6.71438776604e-07
-1.11630857772e-06
5.84902232948e-07
-1.24383763447e-06
5.078712933e-07
-1.3566626194e-06
4.54515660756e-07
-1.42585266804e-06
3.68744354742e-07
-1.42568304035e-06
2.49299393821e-07
-1.4165727396e-06
1.73560868914e-07
-1.45987936183e-06
1.70452272169e-07
-1.54981393704e-06
2.06169128584e-07
-1.66184937036e-06
2.57959148106e-07
-1.75610427231e-06
2.98655821947e-07
-1.81368744364e-06
3.11498881394e-07
-1.85883131791e-06
3.09839165048e-07
-1.91191680756e-06
3.03204803065e-07
-1.96662388609e-06
2.84059298257e-07
-2.01701428847e-06
2.57279749681e-07
-2.06182882128e-06
2.30567262334e-07
-2.10174447066e-06
2.07000059415e-07
-2.13864019254e-06
1.87177026672e-07
-2.17142889268e-06
1.67740104846e-07
-2.2019212123e-06
1.49725690423e-07
-2.22746428668e-06
1.29734214245e-07
-2.24910784182e-06
1.11800385583e-07
-2.26432349081e-06
9.44223691361e-08
-2.28195564011e-06
8.44918345248e-08
-2.30591584948e-06
7.97859134947e-08
-2.32172344399e-06
7.18274013671e-08
-2.33938868573e-06
7.40327481051e-08
-2.35973070502e-06
7.61706695856e-08
-2.37370871039e-06
6.69736870308e-08
-2.38225189825e-06
5.09555213928e-08
-2.38567385059e-06
3.22021443321e-08
-2.38558282488e-06
1.06682630671e-08
-2.38368927825e-06
-1.32085837696e-08
-2.37900440527e-06
-3.5786566914e-08
-2.36968500828e-06
-5.4655712474e-08
-2.35543326345e-06
-7.13826950987e-08
-2.33680658892e-06
-8.8545002587e-08
-2.31409981707e-06
-1.0736105892e-07
-2.28729790489e-06
-1.28005252621e-07
-2.25620521704e-06
-1.50353973259e-07
-2.2205882294e-06
-1.74372805614e-07
-2.1801236078e-06
-2.00039435489e-07
-2.13398664825e-06
-2.27297361903e-07
-2.08088869286e-06
-2.56674769474e-07
-2.02037210659e-06
-2.89572125259e-07
-1.95309434278e-06
-3.26609612147e-07
-1.87796481949e-06
-3.66896962852e-07
-1.79199863384e-06
-4.10950934183e-07
-1.69216810381e-06
-4.60784943457e-07
-1.57543273906e-06
-5.17612806348e-07
-1.43860015115e-06
-5.82122441131e-07
-1.27879372354e-06
-6.55243096547e-07
-1.09719259408e-06
-7.36564204984e-07
-9.10788304768e-07
-8.1619163707e-07
-7.47865273873e-07
-8.6727245306e-07
-5.91120852699e-07
-8.92983456699e-07
-4.44606163139e-07
-8.13337864e-07
-3.10370226103e-07
-6.35767718256e-07
-1.93991623579e-07
-5.04263240478e-07
-1.01173423711e-07
-4.23945745394e-07
-2.85042995234e-08
-3.71982605298e-07
3.42000477474e-08
-3.39659848309e-07
8.33232609926e-08
-2.89924309627e-07
1.00341598305e-07
-1.98018390177e-07
9.96185405796e-08
-1.13541670822e-07
9.94370478255e-08
-6.36580341683e-08
9.6372118818e-08
-2.8176247771e-08
8.45061552336e-08
7.36818391984e-09
6.79489592579e-08
3.87791059085e-08
4.89635334232e-08
6.1832241384e-08
2.38239284513e-08
9.96355090386e-08
1.14512178133e-07
-1.94398541315e-08
7.30997585686e-07
-1.79867904995e-07
8.212237922e-07
-2.84016162733e-07
1.03387327541e-06
-3.57743042562e-07
9.2009147005e-07
-3.66515207067e-07
5.34860194107e-07
-6.11961224393e-07
6.30555414285e-07
-8.30676195847e-07
8.22312036662e-07
-9.45082227238e-07
7.85893598322e-07
-1.07224544472e-06
7.12103315469e-07
-1.1916114908e-06
6.27274703435e-07
-1.26276122052e-06
5.25695086042e-07
-1.24444440937e-06
3.5045080952e-07
-1.25067558326e-06
2.55557334007e-07
-1.32717902849e-06
2.5009750777e-07
-1.44374748796e-06
2.8705987885e-07
-1.58193064874e-06
3.44395009085e-07
-1.69486540927e-06
3.70935394895e-07
-1.75814101024e-06
3.61969948911e-07
-1.80321657351e-06
3.56611236114e-07
-1.85975757979e-06
3.66416229194e-07
-1.91658385948e-06
3.60065977272e-07
-1.9678767954e-06
3.35385414009e-07
-2.01630059822e-06
3.05734706144e-07
-2.06226201107e-06
2.76558198328e-07
-2.10317455453e-06
2.47939208616e-07
-2.13553527293e-06
2.19562693651e-07
-2.16882713873e-06
2.01054007936e-07
-2.19865900652e-06
1.79577453968e-07
-2.22473099864e-06
1.55823846774e-07
-2.24073526965e-06
1.27820010763e-07
-2.25694966887e-06
1.10650572048e-07
-2.27692742348e-06
1.04483227036e-07
-2.29639550414e-06
9.92675707185e-08
-2.32828556552e-06
1.03730576048e-07
-2.35539069453e-06
1.01149480063e-07
-2.37162558254e-06
9.24150769736e-08
-2.3817147189e-06
7.70701797147e-08
-2.38817765067e-06
5.74242042021e-08
-2.39130011392e-06
3.53286593466e-08
-2.39162057083e-06
1.09914272893e-08
-2.38977316041e-06
-1.50550634864e-08
-2.38501436247e-06
-4.05463147868e-08
-2.37592740433e-06
-6.37461311762e-08
-2.36197531016e-06
-8.53405702948e-08
-2.34341536429e-06
-1.07113195204e-07
-2.32052678769e-06
-1.30259837326e-07
-2.29334925596e-06
-1.55195033631e-07
-2.26172089542e-06
-1.81996206788e-07
-2.22537629963e-06
-2.10732981802e-07
-2.18389894563e-06
-2.41533642411e-07
-2.13655243591e-06
-2.74662178334e-07
-2.08246422907e-06
-3.10781107796e-07
-2.02118572571e-06
-3.50868260312e-07
-1.95224460748e-06
-3.95565705716e-07
-1.87360953188e-06
-4.45543505958e-07
-1.78173207926e-06
-5.02836603624e-07
-1.67245269209e-06
-5.70069395625e-07
-1.54135287993e-06
-6.48714315717e-07
-1.38491461999e-06
-7.38559392955e-07
-1.20373927235e-06
-8.3641405617e-07
-1.00868570081e-06
-9.31610385672e-07
-8.21853562795e-07
-1.00301009439e-06
-6.57668905433e-07
-1.03144420799e-06
-5.02753742868e-07
-1.04787463117e-06
-3.57252420697e-07
-9.58829964098e-07
-2.3800361572e-07
-7.55006577081e-07
-1.23586588149e-07
-6.18673652261e-07
-2.15027310295e-08
-5.26021240363e-07
6.21285176214e-08
-4.55603163448e-07
1.25514979366e-07
-4.0302836071e-07
1.49121933246e-07
-3.13509547148e-07
1.39751277509e-07
-1.88631984168e-07
1.31831399743e-07
-1.05602349427e-07
1.26383571044e-07
-5.81996684441e-08
1.17770352306e-07
-1.95485531598e-08
1.01770852095e-07
2.33772372717e-08
8.15741781227e-08
5.89827271139e-08
5.88955503805e-08
8.44959102749e-08
3.05856507186e-08
1.27969227838e-07
1.45084299532e-07
-7.24490174838e-08
8.03446865432e-07
-2.5075997621e-07
9.99556924904e-07
-3.43642079038e-07
1.12677197758e-06
-3.24245116715e-07
9.00718086862e-07
-4.33396440227e-07
6.44042649063e-07
-6.87173052911e-07
8.84375356594e-07
-8.13982472699e-07
9.4916711669e-07
-9.16753286439e-07
8.8869751142e-07
-1.01548746574e-06
8.1087652699e-07
-1.13893029945e-06
7.50740352469e-07
-1.15443333895e-06
5.41221516936e-07
-1.15096333127e-06
3.47003294112e-07
-1.2302227858e-06
3.34847648695e-07
-1.33629955187e-06
3.56212692903e-07
-1.47792180076e-06
4.28724271934e-07
-1.60629579646e-06
4.72809873231e-07
-1.67950891261e-06
4.44187076365e-07
-1.73075099319e-06
4.13249440081e-07
-1.79802943234e-06
4.23927063021e-07
-1.86240855813e-06
4.30831678311e-07
-1.9170754887e-06
4.14767310741e-07
-1.96868228011e-06
3.87025036175e-07
-2.01817650386e-06
3.55260741333e-07
-2.06129192079e-06
3.19702306472e-07
-2.09771679914e-06
2.84390680813e-07
-2.13213262986e-06
2.54003082904e-07
-2.16006013449e-06
2.29004145279e-07
-2.19006767671e-06
2.09605206486e-07
-2.21319201698e-06
1.7896574438e-07
-2.2306998799e-06
1.45343422548e-07
-2.25367795544e-06
1.3364401202e-07
-2.27920643159e-06
1.3002626501e-07
-2.31111446035e-06
1.31190131156e-07
-2.34013375744e-06
1.32763193215e-07
-2.36570151882e-06
1.26728309308e-07
-2.38078000734e-06
1.07502413599e-07
-2.3894987303e-06
8.57959376601e-08
-2.39521364471e-06
6.31444947161e-08
-2.39841764441e-06
3.85365557777e-08
-2.39908617584e-06
1.1662214334e-08
-2.39730076619e-06
-1.68400474276e-08
-2.39245439638e-06
-4.5394536277e-08
-2.38346376271e-06
-7.2741045137e-08
-2.36972696349e-06
-9.90842730369e-08
-2.35126060698e-06
-1.25588853839e-07
-2.32822632674e-06
-1.53305835094e-07
-2.30063342379e-06
-1.82801830982e-07
-2.26831322704e-06
-2.14332403147e-07
-2.23098648227e-06
-2.48077603577e-07
-2.18825253105e-06
-2.84287356458e-07
-2.13952742452e-06
-3.2340740431e-07
-2.08413152887e-06
-3.66197684611e-07
-2.02133129517e-06
-4.13686683129e-07
-1.94972315306e-06
-4.67188423189e-07
-1.86634143324e-06
-5.28936357061e-07
-1.76669827034e-06
-6.02488906401e-07
-1.64546653905e-06
-6.91307916286e-07
-1.49792783781e-06
-7.96256680847e-07
-1.3232241038e-06
-9.13264522124e-07
-1.12790998436e-06
-1.03172623447e-06
-9.30172031401e-07
-1.12934127156e-06
-7.4762637164e-07
-1.18554726839e-06
-5.75127263957e-07
-1.20391899255e-06
-4.3242503693e-07
-1.1905669952e-06
-2.7672476143e-07
-1.11450848707e-06
-1.46158438871e-07
-8.85562120117e-07
-3.40137912671e-08
-7.30808333643e-07
7.70807696242e-08
-6.37107334904e-07
1.70949839945e-07
-5.494566431e-07
2.19096718087e-07
-4.51155878371e-07
2.10143001637e-07
-3.04537752883e-07
1.86577631556e-07
-1.65044241998e-07
1.68421618857e-07
-8.74367635914e-08
1.53634041252e-07
-4.33935673013e-08
1.40655158884e-07
-6.56057456749e-09
1.26160509872e-07
3.78781481013e-08
1.02906084691e-07
8.22361934478e-08
7.29479641161e-08
1.1446985124e-07
4.01727222798e-08
1.60715971586e-07
1.85267387548e-07
-1.22634685531e-07
9.26136581876e-07
-2.72522990664e-07
1.14946928128e-06
-3.26927774509e-07
1.18120445981e-06
-2.65670436189e-07
8.39480739145e-07
-4.72665848452e-07
8.51068860825e-07
-6.75770548664e-07
1.08752190533e-06
-7.82641706944e-07
1.05607016915e-06
-8.92349495366e-07
9.98439753691e-07
-9.4643621658e-07
8.64979833544e-07
-1.003836045e-06
8.0816680786e-07
-1.00918676172e-06
5.46589602568e-07
-1.11808658149e-06
4.55930452162e-07
-1.22111740925e-06
4.37911638789e-07
-1.35949453191e-06
4.94628128528e-07
-1.50205413878e-06
5.71325322907e-07
-1.5855604917e-06
5.56354913611e-07
-1.64143817609e-06
5.00100872047e-07
-1.71960298712e-06
4.91451283612e-07
-1.79828660163e-06
5.02648307033e-07
-1.86030341396e-06
4.92884664814e-07
-1.91360609361e-06
4.68104926838e-07
-1.96424045679e-06
4.37693492018e-07
-2.01575524929e-06
4.06806190055e-07
-2.0644825155e-06
3.6845821799e-07
-2.09871223106e-06
3.18647598234e-07
-2.13470996965e-06
2.90025407885e-07
-2.16472358351e-06
2.59040372133e-07
-2.18047176866e-06
2.2537390338e-07
-2.20267478203e-06
2.01187115284e-07
-2.24370858814e-06
1.86394510548e-07
-2.27415019884e-06
1.64101705578e-07
-2.29168828707e-06
1.47580629756e-07
-2.32251485802e-06
1.6203157758e-07
-2.35552709606e-06
1.65788313415e-07
-2.37530842511e-06
1.46520289791e-07
-2.38851335702e-06
1.20715851314e-07
-2.39755518424e-06
9.48445172947e-08
-2.40352018236e-06
6.91145450897e-08
-2.40695219278e-06
4.19720444854e-08
-2.40789849444e-06
1.26102328765e-08
-2.40619674577e-06
-1.85420222551e-08
-2.4013001713e-06
-5.02937018541e-08
-2.39237149894e-06
-8.16749174999e-08
-2.37880614802e-06
-1.12657535708e-07
-2.36042918502e-06
-1.43976429167e-07
-2.33724007013e-06
-1.76508180084e-07
-2.30915716185e-06
-2.10900462e-07
-2.27597140258e-06
-2.47536293932e-07
-2.23740602942e-06
-2.86663452139e-07
-2.19312355155e-06
-3.28591402458e-07
-2.14266829558e-06
-3.73885767939e-07
-2.08538739551e-06
-4.23499541424e-07
-2.02018206617e-06
-4.78911063343e-07
-1.94490147536e-06
-5.42482119314e-07
-1.85581024919e-06
-6.18041990217e-07
-1.74771199941e-06
-7.10598527446e-07
-1.61487185171e-06
-8.241556969e-07
-1.45347851741e-06
-9.57660332236e-07
-1.26564526061e-06
-1.10110482167e-06
-1.05991331924e-06
-1.23746050007e-06
-8.5532930473e-07
-1.33392290761e-06
-6.63945003416e-07
-1.37691510794e-06
-4.96628842478e-07
-1.3712268167e-06
-3.6453864691e-07
-1.32262812997e-06
-2.27649854803e-07
-1.25138311969e-06
-5.39229690638e-08
-1.05927606e-06
7.10945225806e-08
-8.55817036774e-07
1.85102348476e-07
-7.51104121755e-07
2.8079430576e-07
-6.45139637727e-07
3.13442824415e-07
-4.83786100731e-07
2.85047021196e-07
-2.76118015647e-07
2.42253679093e-07
-1.22238623184e-07
2.01309506928e-07
-4.64691815192e-08
1.75210911491e-07
-1.72870803832e-08
1.66510532634e-07
2.1492979722e-09
1.60235086347e-07
4.41585956973e-08
1.35380972258e-07
1.07093946472e-07
9.37208753524e-08
1.56110379024e-07
4.95617174291e-08
2.04898345748e-07
2.34821679301e-07
-1.51599469931e-07
1.07773319091e-06
-2.65707113256e-07
1.26359583738e-06
-2.80199641148e-07
1.1957074853e-06
-3.18645679376e-07
8.7794811929e-07
-5.36339268617e-07
1.0687922128e-06
-6.40794476781e-07
1.1920068498e-06
-7.42013313476e-07
1.15731513706e-06
-8.50219192035e-07
1.10666502027e-06
-9.10659198438e-07
9.25442360025e-07
-9.71280615789e-07
8.68804415583e-07
-1.01389837394e-06
5.89229663062e-07
-1.11441858131e-06
5.56476845496e-07
-1.23443414111e-06
5.57963792629e-07
-1.38366069886e-06
6.43894587785e-07
-1.50568609415e-06
6.93386071316e-07
-1.5741120257e-06
6.24815455917e-07
-1.63619053448e-06
5.62215044695e-07
-1.71575700573e-06
5.71055520144e-07
-1.79128022228e-06
5.78209452808e-07
-1.8565214729e-06
5.58163708289e-07
-1.91313077834e-06
5.24751340666e-07
-1.96082427695e-06
4.85419784528e-07
-2.00307648262e-06
4.49088723508e-07
-2.04722893065e-06
4.12639223152e-07
-2.08731641714e-06
3.58761230785e-07
-2.11606121885e-06
3.18795734177e-07
-2.15207975321e-06
2.95082209183e-07
-2.18941989882e-06
2.62735248773e-07
-2.22046180002e-06
2.32247797786e-07
-2.24744142219e-06
2.13392448183e-07
-2.27781906404e-06
1.94497756053e-07
-2.32107724645e-06
1.90856238726e-07
-2.34817782768e-06
1.89147669252e-07
-2.36722723742e-06
1.84850549418e-07
-2.38382411481e-06
1.63127248136e-07
-2.39703273592e-06
1.33932639225e-07
-2.40665999285e-06
1.04478246653e-07
-2.41306252734e-06
7.55220532572e-08
-2.41675289534e-06
4.5665627319e-08
-2.4179318323e-06
1.37905536114e-08
-2.41637776061e-06
-2.00969811039e-08
-2.41152987133e-06
-5.5144939419e-08
-2.40268782389e-06
-9.05230526255e-08
-2.38928607452e-06
-1.26068214954e-07
-2.37100176046e-06
-1.62272605403e-07
-2.34763906961e-06
-1.99885637387e-07
-2.31898165712e-06
-2.39575520871e-07
-2.28475407184e-06
-2.81784380041e-07
-2.24467100316e-06
-3.26768923225e-07
-2.1984526862e-06
-3.74834564402e-07
-2.1457224753e-06
-4.2663890842e-07
-2.08578859315e-06
-4.83456811634e-07
-2.01725521527e-06
-5.47459250352e-07
-1.93758347263e-06
-6.22172378287e-07
-1.84286029339e-06
-7.12778428368e-07
-1.72808237761e-06
-8.25390594348e-07
-1.58759220114e-06
-9.6466812955e-07
-1.41698616512e-06
-1.12828183569e-06
-1.21899026046e-06
-1.29911319977e-06
-9.97447120189e-07
-1.45900890906e-06
-7.78054085116e-07
-1.55331122164e-06
-5.74661773546e-07
-1.58030295234e-06
-3.99103766708e-07
-1.54676074426e-06
-2.55110827653e-07
-1.46660895513e-06
-1.52523967297e-07
-1.35395296203e-06
-1.05844117073e-09
-1.21072385776e-06
1.70432159512e-07
-1.02730206103e-06
2.92772275813e-07
-8.73448850154e-07
4.04742008249e-07
-7.57101234467e-07
4.41323809105e-07
-5.20354792429e-07
3.8899354339e-07
-2.23774104106e-07
3.00183265548e-07
-3.34036382289e-08
2.17667288839e-07
3.60553982271e-08
1.79319981546e-07
2.10729713797e-08
1.91418058876e-07
-9.93904084235e-09
2.07812259841e-07
2.77617467955e-08
1.79161250464e-07
1.35740130279e-07
1.23132731545e-07
2.12153677156e-07
5.90689507338e-08
2.6894547407e-07
2.93904131272e-07
-1.67181808232e-07
1.24497395077e-06
-2.77487573992e-07
1.37393000731e-06
-2.61477558207e-07
1.179719545e-06
-3.69375088167e-07
9.85862713849e-07
-5.52326311459e-07
1.25176562045e-06
-6.0997589408e-07
1.249674894e-06
-6.96694960358e-07
1.24405750195e-06
-7.61642664175e-07
1.17162606697e-06
-8.51347279313e-07
1.01516400939e-06
-8.84943816079e-07
9.02419659332e-07
-9.85128613176e-07
6.89434722728e-07
-1.10570380709e-06
6.77083541048e-07
-1.23620364532e-06
6.88494772763e-07
-1.37478781517e-06
7.82513290696e-07
-1.4645808847e-06
7.83213629598e-07
-1.52502635423e-06
6.85291912064e-07
-1.61469921172e-06
6.51922862631e-07
-1.7031843405e-06
6.5957866265e-07
-1.77761275598e-06
6.52676836259e-07
-1.8466896134e-06
6.2727890181e-07
-1.91199881638e-06
5.90095360379e-07
-1.96840917257e-06
5.41864413105e-07
-2.00594545219e-06
4.86657208302e-07
-2.03669218741e-06
4.43414673683e-07
-2.086416317e-06
4.0851302445e-07
-2.12283956683e-06
3.55245400856e-07
-2.13957968635e-06
3.11846000013e-07
-2.16463755584e-06
2.87814319611e-07
-2.202130568e-06
2.69762105419e-07
-2.24875875443e-06
2.60040688025e-07
-2.29218858906e-06
2.37947464803e-07
-2.32677226018e-06
2.25458708139e-07
-2.35993414739e-06
2.2232562404e-07
-2.37984978918e-06
2.04778495079e-07
-2.39443297151e-06
1.77720273304e-07
-2.40704793082e-06
1.46555576529e-07
-2.41703657522e-06
1.14473378094e-07
-2.42389368126e-06
8.23838488043e-08
-2.42783680126e-06
4.96116825745e-08
-2.42917641275e-06
1.51309263711e-08
-2.4277791599e-06
-2.14956996531e-08
-2.42307950417e-06
-5.98487022841e-08
-2.41440276712e-06
-9.92067381785e-08
-2.4011949108e-06
-1.39286183801e-07
-2.38303285146e-06
-1.80447911379e-07
-2.35952298201e-06
-2.23411904299e-07
-2.33024930265e-06
-2.68868684255e-07
-2.29481760535e-06
-3.17238028114e-07
-2.25291468117e-06
-3.68696708814e-07
-2.20428854065e-06
-4.23484478724e-07
-2.14860731618e-06
-4.82345953839e-07
-2.08514389283e-06
-5.46938226073e-07
-2.01243166202e-06
-6.20188575929e-07
-1.9281324371e-06
-7.06488105888e-07
-1.8293475995e-06
-8.11588819028e-07
-1.71272392684e-06
-9.42040918175e-07
-1.57155204098e-06
-1.10585138252e-06
-1.39541503727e-06
-1.30445683019e-06
-1.18955649374e-06
-1.50500155951e-06
-9.41182038764e-07
-1.70736618782e-06
-7.00488459876e-07
-1.79397039359e-06
-4.73106950275e-07
-1.80763643811e-06
-2.68623727021e-07
-1.75121042357e-06
-9.90572535468e-08
-1.63613472538e-06
1.54200107971e-08
-1.46839500035e-06
9.6018481213e-08
-1.29131353189e-06
1.7108111853e-07
-1.10237234957e-06
3.63474840942e-07
-1.06585434615e-06
5.51366575731e-07
-9.45002555033e-07
6.36297617949e-07