/*--------------------------------*- C++ -*----------------------------------*\
| =========                 |                                                 |
| \\      /  F ield         | OpenFOAM: The Open Source CFD Toolbox           |
|  \\    /   O peration     | Version:  v1806                                 |
|   \\  /    A nd           | Web:      www.OpenFOAM.com                      |
|    \\/     M anipulation  |                                                 |
\*---------------------------------------------------------------------------*/
FoamFile
{
    version     2.0;
    format      ascii;
    class       volVectorField;
    location    "358";
    object      U;
}
// * * * * * * * * * * * * * * * * * * * * * * * * * * * * * * * * * * * * * //

dimensions      [0 1 -1 0 0 0 0];


internalField   nonuniform List<vector> 
6400
(
(-8.61932577964e-05 -0.000115602757464 0)
(-0.000235508799951 -8.92246119607e-05 0)
(-0.000345089206544 -7.30759428152e-05 0)
(-0.000469664358936 -6.50548808646e-05 0)
(-0.000558272929361 -3.90130001274e-05 0)
(-0.000620150702676 -1.79923342121e-05 0)
(-0.000646142749679 -1.03647541329e-05 0)
(-0.000664097237474 -2.15023712689e-05 0)
(-0.000744198977256 -3.43663155523e-05 0)
(-0.00082657171616 -3.20151272719e-05 0)
(-0.000849799042552 -2.83445123187e-05 0)
(-0.000925797518045 -3.20193167185e-05 0)
(-0.000991677710696 -2.85973592524e-05 0)
(-0.00104344466103 -2.17144665991e-05 0)
(-0.00107720096164 -1.82997384106e-05 0)
(-0.0011136023576 -2.16590752551e-05 0)
(-0.0011635407327 -2.25117887593e-05 0)
(-0.00120355043895 -1.8393575707e-05 0)
(-0.00122738712397 -1.19517206047e-05 0)
(-0.00124572354213 -7.94197254062e-06 0)
(-0.00127348392392 -1.37536242732e-05 0)
(-0.00131414203157 -2.11355062577e-05 0)
(-0.00136121322584 -2.33691896948e-05 0)
(-0.0014037232985 -2.33830962922e-05 0)
(-0.00144405740491 -2.11783719622e-05 0)
(-0.00148164965093 -1.78579540525e-05 0)
(-0.00151927663022 -1.66759808673e-05 0)
(-0.00155305581035 -1.47407179976e-05 0)
(-0.00157933768421 -1.16687014404e-05 0)
(-0.00159917467337 -9.20340434843e-06 0)
(-0.00161270319782 -8.92427796107e-06 0)
(-0.00162826181814 -7.81745129518e-06 0)
(-0.00164361083042 -4.99865043196e-06 0)
(-0.00165293869203 -4.7145876918e-06 0)
(-0.00165971422655 -3.98364668323e-06 0)
(-0.00167390928701 -3.30463273966e-06 0)
(-0.00168543521466 -4.32983682533e-06 0)
(-0.00167745088439 -3.38043726273e-06 0)
(-0.00168536657386 -1.14375111277e-06 0)
(-0.00170239008751 -1.46481964899e-06 0)
(-0.00171327904752 -8.46643708581e-06 0)
(-0.00171558874951 -9.80625510057e-06 0)
(-0.00171499485732 6.77794004387e-07 0)
(-0.00170807484153 7.70794118011e-06 0)
(-0.00169235630911 1.07096071985e-05 0)
(-0.00167131763992 1.40295230645e-05 0)
(-0.0016439946291 1.71803692516e-05 0)
(-0.00160873977237 2.11417717024e-05 0)
(-0.00156602711304 2.45574409345e-05 0)
(-0.00151669321338 2.35625235936e-05 0)
(-0.00146658406491 1.86978469897e-05 0)
(-0.00143080042153 2.23221069264e-05 0)
(-0.00136815014407 4.25164686084e-05 0)
(-0.00128951489846 5.25015831247e-05 0)
(-0.00118535817966 5.95159728675e-05 0)
(-0.00103977763534 7.13164572061e-05 0)
(-0.000891226669626 6.87386041886e-05 0)
(-0.000761597265509 6.55182106967e-05 0)
(-0.000629676870783 7.52956210764e-05 0)
(-0.000447573639678 8.04446348337e-05 0)
(-0.000268782749747 8.48135457616e-05 0)
(-8.02275613429e-05 0.000103338945099 0)
(0.000179548369195 0.000127865554429 0)
(0.000405466454342 8.49463460402e-05 0)
(0.000499191128597 4.6707156438e-05 0)
(0.000556740606063 3.11176640119e-05 0)
(0.000601950353157 1.9683219982e-05 0)
(0.000644119584591 1.30219254214e-05 0)
(0.000680504175185 8.06296305307e-06 0)
(0.000694386415678 1.45892539912e-06 0)
(0.000694758198194 -5.82840449699e-06 0)
(0.000666749806671 -1.38579408484e-05 0)
(0.00061822038614 -2.40585454688e-05 0)
(0.000586243493719 -3.82347567459e-05 0)
(0.000470319674616 -3.75383550114e-05 0)
(0.000431709501029 -3.85684934963e-05 0)
(0.000298464518652 -2.6168923977e-05 0)
(0.000317270787835 -4.17893927276e-05 0)
(0.000140208492329 -3.24213925245e-05 0)
(0.000104950702914 -6.27475659264e-05 0)
(-3.17160396502e-05 -0.000159335467266 0)
(-0.000135903312924 -0.0001803805296 0)
(-0.0002379768389 -0.000165725989941 0)
(-0.000302168005357 -0.000132208669195 0)
(-0.000444715893753 -0.000130381144131 0)
(-0.000582420341454 -9.16550978149e-05 0)
(-0.000662683481303 -5.44354262246e-05 0)
(-0.000714434220002 -7.34226590766e-05 0)
(-0.000768914873452 -9.90603545732e-05 0)
(-0.000830953698797 -9.63573124839e-05 0)
(-0.000889883135167 -8.99622123002e-05 0)
(-0.000943317230266 -8.92372089411e-05 0)
(-0.000992529615885 -7.87021356616e-05 0)
(-0.00103641826304 -6.42098390588e-05 0)
(-0.00108032499027 -5.72561496742e-05 0)
(-0.00112260122792 -7.05980408768e-05 0)
(-0.00116561202976 -7.42631764224e-05 0)
(-0.00119692237769 -4.52812214821e-05 0)
(-0.00117897992353 -2.47510142822e-05 0)
(-0.00120627694923 -2.4318942853e-05 0)
(-0.00124805960479 -4.43616653047e-05 0)
(-0.00129964819234 -7.13157786126e-05 0)
(-0.00136242560059 -7.78985028798e-05 0)
(-0.00141313113317 -6.79176916192e-05 0)
(-0.00143521123736 -6.02268880836e-05 0)
(-0.00148273918448 -5.68409413684e-05 0)
(-0.00152449942756 -5.11084820809e-05 0)
(-0.00155418674035 -4.28729139593e-05 0)
(-0.00157830102057 -3.46414543651e-05 0)
(-0.00159901818492 -2.79514861537e-05 0)
(-0.00161593951817 -2.49862706313e-05 0)
(-0.00161984400096 -2.08744843636e-05 0)
(-0.00163439304311 -1.2127220965e-05 0)
(-0.00164080829847 -1.29206453214e-05 0)
(-0.0016417368434 -1.55988494119e-05 0)
(-0.00167014367417 -9.47879721875e-06 0)
(-0.00167227376465 -1.13357010371e-05 0)
(-0.0016660744289 -1.47591506403e-05 0)
(-0.00168365874113 -1.11266164167e-05 0)
(-0.00171720727856 -5.80259953516e-06 0)
(-0.00173139686188 2.87330165317e-06 0)
(-0.00163870352736 1.06833355022e-05 0)
(-0.00159809117189 1.48547532062e-05 0)
(-0.00159858811998 1.8104796981e-05 0)
(-0.00158872463541 2.21236507546e-05 0)
(-0.00158345489178 2.82017375025e-05 0)
(-0.00157749418534 3.70263232003e-05 0)
(-0.00155805351311 4.77401675314e-05 0)
(-0.0015403003809 5.97016833943e-05 0)
(-0.00150899652149 7.05563314885e-05 0)
(-0.00144997065631 7.73808428199e-05 0)
(-0.00135240974245 8.35168313581e-05 0)
(-0.0012596009531 9.51486898224e-05 0)
(-0.00128948960301 0.000129586820546 0)
(-0.00117094202343 0.000165880938259 0)
(-0.00105582974086 0.000190757558391 0)
(-0.000971952000055 0.000205563584557 0)
(-0.000837266752544 0.000217664412097 0)
(-0.000678030614302 0.000244916980467 0)
(-0.000504076921816 0.000280053760145 0)
(-0.000305491700714 0.000316501791446 0)
(-6.61986941007e-05 0.00030202121187 0)
(0.000188935334564 0.000371275470965 0)
(0.000401027722055 0.000262890213377 0)
(0.000500305235592 0.000145594183274 0)
(0.000532194948587 7.92614278474e-05 0)
(0.000564067437135 5.69262724062e-05 0)
(0.000632727635566 4.87879545344e-05 0)
(0.000672506065432 3.08828734184e-05 0)
(0.000698307932933 5.8256244629e-06 0)
(0.000690606733161 -2.29836632406e-05 0)
(0.000656366064 -5.03382097758e-05 0)
(0.000593105768848 -6.64717657458e-05 0)
(0.000575684027119 -8.84059692709e-05 0)
(0.000525121920619 -0.000102135848712 0)
(0.000469445661881 -0.000109748828979 0)
(0.000400312499724 -0.000105745262646 0)
(0.000327055405768 -0.000126343611974 0)
(0.000206741009689 -0.000147221091843 0)
(9.67203454108e-05 -0.000248941011844 0)
(-4.85425765764e-05 -0.000275269570351 0)
(-0.000132994466971 -0.000302800385106 0)
(-0.000204404440429 -0.000283644372075 -9.88634107577e-29)
(-0.000355526373323 -0.00029231187372 9.4458241326e-29)
(-0.000499349169835 -0.000292367279395 8.58097349102e-29)
(-0.000583601054857 -0.000234220291363 -7.90007359966e-29)
(-0.000640354500891 -0.000119070114237 8.02508148709e-29)
(-0.000694681919433 -0.000128552241023 -7.95028135415e-29)
(-0.000752616570528 -0.000159218204423 0)
(-0.000819327314609 -0.000162881730717 0)
(-0.000884883817082 -0.000152434228328 0)
(-0.000941136871329 -0.000139249173288 0)
(-0.000990507301132 -0.000122393639212 0)
(-0.0010329009069 -0.000109869718708 0)
(-0.00107540623885 -0.000100533375409 0)
(-0.00111591627026 -8.2398055836e-05 0)
(-0.000995073108729 -5.20364431013e-05 0)
(-0.000958514421342 -3.43389470058e-05 0)
(-0.000988780053465 -4.425122007e-05 0)
(-0.0010610271737 -8.3504756513e-05 0)
(-0.00123194622426 -0.000127625674555 0)
(-0.00132377090103 -0.000140059913919 0)
(-0.00134614440664 -0.000128379868477 0)
(-0.00139796300869 -0.000113697530237 0)
(-0.0014512519836 -0.000103688771814 0)
(-0.0014884285466 -9.58222266171e-05 0)
(-0.0015205125195 -8.31148895273e-05 0)
(-0.00155055059281 -6.92974350363e-05 0)
(-0.00157531433045 -5.6784490691e-05 0)
(-0.0015929714843 -4.68408219216e-05 -1.65898979812e-28)
(-0.00161410939058 -3.76716026004e-05 1.61079642843e-28)
(-0.00160890295752 -2.98653145566e-05 0)
(-0.0016172695059 -2.01607271741e-05 0)
(-0.00164809839305 -1.12961179841e-05 0)
(-0.0016037261077 -2.1139691184e-05 0)
(-0.00163170498436 -2.57246658896e-05 0)
(-0.00167962845354 -1.78096966416e-05 0)
(-0.00164018723745 -2.36880000955e-05 0)
(-0.00166806852208 -3.34445802978e-05 0)
(-0.00171364656053 -2.22205471176e-05 0)
(-0.00173343910671 1.2516483464e-05 0)
(-0.00172969632572 3.61383743943e-05 0)
(-0.00172206482557 3.36359635649e-05 0)
(-0.00171244366554 3.1030532669e-05 0)
(-0.00169690864879 3.55947093055e-05 0)
(-0.0016760667166 4.40927993966e-05 0)
(-0.00165038134671 5.7508784986e-05 0)
(-0.00161966307906 7.36699348177e-05 0)
(-0.0015838172996 9.26994437086e-05 0)
(-0.00154233565171 0.00011665335378 0)
(-0.00149478605877 0.000142190541201 0)
(-0.00143904813307 0.00016071147954 0)
(-0.00137027121055 0.000170028673433 0)
(-0.0012736251087 0.000205577739859 0)
(-0.00115841669658 0.000254017325536 0)
(-0.00107587836829 0.000292288984278 0)
(-0.000963827433771 0.00032719537146 0)
(-0.000818386135228 0.000368182360792 0)
(-0.000650222394101 0.000416081687901 0)
(-0.000462786986123 0.000469936936173 0)
(-0.000258547860202 0.000522605442043 0)
(-4.14431922689e-05 0.000578651604604 0)
(0.000194178258937 0.000606146054044 0)
(0.00034893263782 0.000398575391335 0)
(0.000427763198392 0.000215656057691 0)
(0.000513172850521 0.000141742414127 0)
(0.000586196969367 0.000110352537772 0)
(0.000626403325286 8.43282740746e-05 0)
(0.00065360026588 4.80380387412e-05 0)
(0.000664331568309 4.0449910244e-06 0)
(0.000652681109784 -3.79593998102e-05 0)
(0.000633856042714 -6.94803449648e-05 0)
(0.00063266631418 -9.32694161167e-05 0)
(0.000614716222039 -0.000128604858362 0)
(0.000555381463192 -0.000164655487429 0)
(0.000480468875754 -0.000180856045952 0)
(0.000399865947489 -0.000187537559316 0)
(0.000319520132062 -0.000235870608656 0)
(0.000224940660855 -0.000339222486207 0)
(5.99122803246e-05 -0.000352470109451 0)
(-4.94036869339e-05 -0.000415891124713 0)
(-6.06998645703e-05 -0.00027555469937 0)
(-0.00016898498007 -0.000432812146542 0)
(-0.000314222036597 -0.000438538078509 0)
(-0.000428873640331 -0.00036914171767 0)
(-0.000237112292117 -0.000136224687449 0)
(-0.000295798417873 -0.00013616591242 0)
(-0.000565914899437 -0.000254350486408 0)
(-0.000706387285411 -0.000270253335848 0)
(-0.000792041590677 -0.000243886468995 0)
(-0.000871997127428 -0.000222354802489 0)
(-0.000936707276828 -0.00019723221071 0)
(-0.000989057613733 -0.000170216215094 0)
(-0.00102036856931 -0.000128181478388 0)
(-0.000949621694995 -7.21209984024e-05 0)
(-0.000890591053271 -3.57722297433e-05 0)
(-0.000888150045097 -3.184291424e-05 0)
(-0.00094685737927 -7.16565661092e-05 0)
(-0.00108679340981 -0.000138358499835 0)
(-0.00123016236471 -0.0002054697735 0)
(-0.00126999173053 -0.000216635887864 0)
(-0.00131361961237 -0.000195934103266 0)
(-0.0013658430446 -0.000177126404745 0)
(-0.00141039111055 -0.000162558293469 0)
(-0.00144893563302 -0.000146246749784 0)
(-0.00148305109743 -0.000129218817824 0)
(-0.00151280185307 -0.000112736786136 0)
(-0.00154727249531 -9.57063560035e-05 0)
(-0.00156589422165 -7.88535602472e-05 0)
(-0.00159486373038 -6.40036815019e-05 0)
(-0.00159300287063 -5.02723911934e-05 0)
(-0.00161937349268 -3.52621026628e-05 0)
(-0.00159025524761 -1.87187728427e-05 0)
(-0.00160242314832 -1.64305213037e-05 0)
(-0.00165126938713 -2.64805707309e-05 0)
(-0.0016158877062 -4.07923847678e-05 0)
(-0.00166088131608 -4.37378625948e-05 0)
(-0.00171088790297 -4.58792666202e-05 0)
(-0.00172221830181 -5.13357545636e-05 0)
(-0.00172657788251 -3.40632863122e-05 0)
(-0.00173080215339 1.14431352216e-06 0)
(-0.00173048489626 2.87199317865e-05 0)
(-0.00172573185891 3.92398687601e-05 0)
(-0.00171648403207 4.51662750194e-05 0)
(-0.00170150665574 5.45253309544e-05 0)
(-0.00168134946911 6.80990152705e-05 1.55538827917e-28)
(-0.00165641215553 8.58219367913e-05 -1.56702097133e-28)
(-0.00162654178325 0.000106996093693 0)
(-0.00159141239878 0.000131743266389 0)
(-0.00155034013754 0.000160188341981 0)
(-0.00150200375868 0.00019029004205 0)
(-0.00144342979838 0.000220354933296 0)
(-0.00137108438599 0.000255754153596 0)
(-0.00128328958009 0.000304768334259 0)
(-0.00118476771298 0.00035465531731 0)
(-0.00107630091879 0.000404577061368 0)
(-0.000947738591687 0.000465687159133 0)
(-0.000792240675893 0.000533920872911 3.03535207588e-28)
(-0.000611168878787 0.000606263658773 -3.49153171869e-28)
(-0.000409769114179 0.000678515161347 0)
(-0.000197949426648 0.000737854669448 0)
(7.26061947323e-06 0.000766911180614 0)
(0.000171835510998 0.000721616433099 0)
(0.000316755878538 0.000541062836654 0)
(0.000457324059686 0.000342753550872 0)
(0.000516856328578 0.00021468136273 0)
(0.000569139006524 0.000154298400371 0)
(0.000615417659142 0.000112218950196 0)
(0.000645942990667 6.3315096375e-05 0)
(0.000672933031266 7.57379434061e-06 0)
(0.000683695514213 -4.14590082131e-05 0)
(0.000683749244179 -7.89176697868e-05 0)
(0.000656702752562 -0.000125259788072 0)
(0.000573949852067 -0.000177951665436 0)
(0.000508041080269 -0.000225655289367 0)
(0.000442763578587 -0.000266213678524 0)
(0.00034993374087 -0.000288726750068 0)
(0.000215350292806 -0.000280328276725 0)
(0.00015924659299 -0.000394441802215 0)
(5.43378992681e-05 -0.000473583093353 0)
(-4.25267196233e-06 -0.000411963789456 0)
(-2.97530145747e-05 -0.000336446673195 0)
(-0.00015541826829 -0.000573955294062 0)
(-0.000268084841007 -0.000527833722545 0)
(-0.000279046228126 -0.000334407952059 0)
(-0.000217713490407 -0.000181359946829 0)
(-0.000373479206204 -0.000302402934296 0)
(-0.000584482168247 -0.000434897411206 0)
(-0.000663365642915 -0.000387081216449 0)
(-0.000759776236995 -0.000335901587086 0)
(-0.000845693043218 -0.00030681236097 0)
(-0.00091617229856 -0.000262826322694 0)
(-0.000915129595863 -0.000171789084204 0)
(-0.000827288127012 -8.19889211679e-05 0)
(-0.000842632292224 -4.81411413848e-05 0)
(-0.00089463479877 -5.86754558171e-05 0)
(-0.000989963203405 -0.000109039674438 0)
(-0.00111461876889 -0.000188382503732 0)
(-0.0012034068897 -0.000247392972013 0)
(-0.00121947416888 -0.000254862199454 0)
(-0.0012628277591 -0.000253762225708 0)
(-0.00132035361627 -0.000246768844916 0)
(-0.00136550878478 -0.000227122987213 0)
(-0.00140741555154 -0.000204013462127 0)
(-0.00144402706362 -0.000182008909985 0)
(-0.00147485643495 -0.000162705774419 0)
(-0.001512717636 -0.000142496357676 0)
(-0.00152906272951 -0.000121213590289 0)
(-0.00156964937803 -0.000100452617486 0)
(-0.00156390482815 -7.88259504256e-05 0)
(-0.00160669971105 -5.94771409501e-05 -1.58311873981e-28)
(-0.00155560993787 -3.96745175515e-05 1.47341713112e-28)
(-0.00160501368812 -2.98068348008e-05 0)
(-0.00164324769663 -2.69695534186e-05 0)
(-0.00161765238014 -4.06446192618e-05 0)
(-0.0016772904993 -6.51538482694e-05 0)
(-0.00170295028911 -7.96013528465e-05 0)
(-0.00171993797313 -7.20878912214e-05 0)
(-0.00172829741278 -5.62170873125e-05 0)
(-0.00173180473582 -3.27467656339e-05 0)
(-0.00173490128803 -1.40918593822e-06 0)
(-0.00173549547579 2.65178799761e-05 0)
(-0.00173169287757 4.43407371933e-05 0)
(-0.00172283266821 5.7615799253e-05 0)
(-0.00170851970611 7.24023080361e-05 0)
(-0.00168924602348 9.07262252751e-05 0)
(-0.00166527048828 0.000113009894162 0)
(-0.00163638998583 0.000139192608927 0)
(-0.0016020588715 0.000169581011725 0)
(-0.00156130675841 0.00020446213202 0)
(-0.00151249770191 0.000243404088312 0)
(-0.00145295244428 0.000286641287436 0)
(-0.00137993669238 0.000336818612858 0)
(-0.00129219054114 0.000395557243293 0)
(-0.00119051505776 0.000459487063944 0)
(-0.00107266657909 0.000532454443386 0)
(-0.000931433172826 0.000618831441816 0)
(-0.000762123240898 0.000713829571583 0)
(-0.000566846748794 0.000808626629951 0)
(-0.000355242983108 0.000890547248362 0)
(-0.000144194663673 0.000940909940152 0)
(4.45095425694e-05 0.000938402029623 0)
(0.000175877645669 0.000845974044538 0)
(0.000328835887958 0.000699371935625 0)
(0.000489117564958 0.000482781831189 0)
(0.000554828214017 0.000291100242802 0)
(0.00059886745735 0.000197220762124 0)
(0.000628513088542 0.000139560617573 0)
(0.000650410402908 8.28958068105e-05 0)
(0.000678139147036 2.35664506367e-05 0)
(0.000707073601761 -3.56498534521e-05 0)
(0.00069436025592 -0.000105428076168 0)
(0.000609441332909 -0.00017763626205 0)
(0.000548684508997 -0.000242632143282 0)
(0.000491604583168 -0.000303949867355 0)
(0.000418912460712 -0.000361972761943 0)
(0.000310510811419 -0.000370588733174 0)
(0.00021072213348 -0.000376386319322 0)
(0.000144411770007 -0.00051277304504 0)
(4.09389977556e-05 -0.00055405982039 0)
(1.43941116701e-06 -0.0003830125597 0)
(-3.81001058443e-05 -0.000410817340549 0)
(-0.000158306897207 -0.000655149577285 0)
(-0.000219131842727 -0.000534964330315 0)
(-0.000162070750281 -0.000257649288305 0)
(-0.000220842930338 -0.000263138288096 0)
(-0.000478956098748 -0.000504100937927 0)
(-0.000565466897726 -0.000528875737461 0)
(-0.000635026464201 -0.000475608502039 0)
(-0.000720352720028 -0.000427780670196 0)
(-0.000803225338076 -0.000363902035974 0)
(-0.000736987807446 -0.000235454419398 0)
(-0.000668677697986 -0.000120655969595 0)
(-0.000722544624691 -9.09470148719e-05 0)
(-0.000790038698482 -0.000106964455827 0)
(-0.000921044762274 -0.000164177370594 0)
(-0.00106229607934 -0.00023491180903 0)
(-0.00115398698806 -0.000273608054634 0)
(-0.00115299605966 -0.000271181719897 0)
(-0.0012065856359 -0.000290760639035 0)
(-0.00127333987851 -0.000307853974173 0)
(-0.00131819283335 -0.000295840530777 0)
(-0.00136000825466 -0.000271414817529 0)
(-0.00139793300895 -0.000245129642428 0)
(-0.00144246802916 -0.000220203456252 0)
(-0.00147366956192 -0.000191599862163 0)
(-0.00147749773414 -0.000168672106146 0)
(-0.00153866475853 -0.000147899091633 0)
(-0.00151662133815 -0.000116988312293 0)
(-0.00158447105661 -8.86808116253e-05 0)
(-0.00150673756332 -5.84771526791e-05 0)
(-0.00158896922318 -5.25153326295e-05 0)
(-0.00152749264299 -4.83649339479e-05 0)
(-0.00160444270911 -5.49168495185e-05 0)
(-0.00167377696305 -7.74087221399e-05 0)
(-0.00170186602878 -0.000100571726435 0)
(-0.00171664835642 -9.83850155368e-05 0)
(-0.00172722258936 -8.26542220747e-05 0)
(-0.00173396054012 -6.10033020788e-05 0)
(-0.00173837052663 -3.45343889868e-05 0)
(-0.00174141962276 -3.84720421502e-06 0)
(-0.00174214684069 2.53984203666e-05 0)
(-0.00173888717615 4.88730700331e-05 0)
(-0.00173058828427 6.87678281228e-05 0)
(-0.00171716350385 8.9135427424e-05 0)
(-0.00169893068686 0.000112283984947 0)
(-0.00167613192512 0.000139196668957 0)
(-0.00164844230187 0.000170414480346 0)
(-0.00161508206 0.000206641163149 0)
(-0.00157491623708 0.000248631390614 0)
(-0.00152624435424 0.000296977799707 0)
(-0.00146662919226 0.000352602863464 0)
(-0.00139351893189 0.000416914564811 0)
(-0.00130490425143 0.000490534223847 0)
(-0.00119880494078 0.000574121708888 0)
(-0.00107109481962 0.000672067666207 0)
(-0.000916224617048 0.000785582962706 0)
(-0.000732861008459 0.000906176526922 0)
(-0.000527080661566 0.00101877961789 0)
(-0.00031060774721 0.00110130845199 0)
(-0.000103848170635 0.00113143691803 0)
(7.15685703831e-05 0.00107843735907 0)
(0.000196236144887 0.000916145202307 0)
(0.000377475330164 0.000876991970573 0)
(0.00048649966897 0.000588528287627 0)
(0.000549869562881 0.00035496445007 0)
(0.000609586266412 0.00023307692578 0)
(0.000647140803522 0.000162219231365 0)
(0.00066842379284 0.000103204666782 0)
(0.000710987007934 4.11895269486e-05 0)
(0.000732294030642 -4.80985446371e-05 0)
(0.000659836114874 -0.000150018445478 0)
(0.000589531406549 -0.000231662294048 0)
(0.000550206316148 -0.000305767768059 0)
(0.00048778605326 -0.000380738182192 0)
(0.000419269284409 -0.00045331017411 0)
(0.000305871767688 -0.00044475374287 0)
(0.000217256857904 -0.000464329588247 0)
(0.000146937343771 -0.000607536347665 0)
(4.48859129303e-05 -0.000635004522225 0)
(-1.38431923597e-05 -0.000416193635062 0)
(-9.05226728049e-05 -0.00054059255426 0)
(-0.000208985410293 -0.000714812016785 0)
(-0.00023274153485 -0.000657447880435 0)
(-0.000153175729588 -0.000322429926111 0)
(-0.000324259868071 -0.000473452139795 0)
(-0.000501311743681 -0.000623428653752 0)
(-0.000544721018049 -0.000594541421369 0)
(-0.000612790802511 -0.000543048495861 0)
(-0.000653338804558 -0.000485562072532 0)
(-0.000765153041879 -0.000394980387602 3.67275174816e-28)
(-0.000581423165108 -0.000178559426829 -2.11709181896e-28)
(-0.000668498836277 -0.000150647019628 0)
(-0.000709859732694 -0.000158270370612 0)
(-0.000826768159137 -0.000217478640098 0)
(-0.000986053167436 -0.000307152283039 0)
(-0.00108774808995 -0.000334861501237 0)
(-0.00106603217554 -0.000296370679562 0)
(-0.0011303323687 -0.000313126971227 0)
(-0.00121926142386 -0.000355159887441 0)
(-0.00126380101649 -0.00036018430587 0)
(-0.00131137442161 -0.000341468961277 0)
(-0.00135587219652 -0.000315039159689 0)
(-0.00139665391556 -0.000284153742102 0)
(-0.00142243391753 -0.0002488141669 0)
(-0.00143397861071 -0.000212870988041 0)
(-0.00149053347244 -0.000191767791422 0)
(-0.00145237494943 -0.000166684831897 0)
(-0.00154676034511 -0.000135531203806 0)
(-0.00145885911262 -8.11760167132e-05 0)
(-0.00155357637382 -7.05050656117e-05 0)
(-0.0015014388257 -7.24265450677e-05 1.41799589137e-28)
(-0.00158318712728 -7.75804883833e-05 -1.49438685536e-28)
(-0.00161260953384 -0.000106255352359 0)
(-0.00169640042494 -0.000129646914031 0)
(-0.00171521511744 -0.00012609905412 0)
(-0.00172499070813 -0.000111097639341 0)
(-0.00173358410861 -9.05895624751e-05 0)
(-0.00174118142322 -6.5970370849e-05 0)
(-0.00174665427696 -3.75533515073e-05 0)
(-0.00174982206001 -6.12077992644e-06 0)
(-0.0017505985631 2.50821297117e-05 0)
(-0.001747660876 5.32173411469e-05 0)
(-0.0017399607565 7.88973024282e-05 0)
(-0.00172742881634 0.000104639045992 0)
(-0.00171036431842 0.000132586781011 0)
(-0.00168889172412 0.000164148349 0)
(-0.00166254823302 0.000200442399557 0)
(-0.00163044893408 0.000242658688683 0)
(-0.00159144552808 0.000292082136197 0)
(-0.00154386290656 0.000350028724657 0)
(-0.00148527724665 0.000417894103681 0)
(-0.00141280367278 0.000497094849641 0)
(-0.00132318669991 0.000589121598302 0)
(-0.00121235876981 0.0006966854414 0)
(-0.00107523835638 0.000823037608314 0)
(-0.000908037383883 0.000964818861193 0)
(-0.000712610452975 0.00110804134308 0)
(-0.000497159540992 0.00123204499456 0)
(-0.000274064093901 0.00131285817745 0)
(-6.21713769707e-05 0.00131812904608 0)
(0.000114978589984 0.0012343866801 0)
(0.000274095436558 0.00112751692396 0)
(0.000405416257735 0.00097454602801 0)
(0.000501369915437 0.000674944299902 0)
(0.000551218203877 0.000417309831782 0)
(0.000643769254611 0.00029265495232 0)
(0.000702778005112 0.000204039669104 0)
(0.000732565475677 0.000128974466696 0)
(0.000754951077372 3.86323220062e-05 0)
(0.000724207276294 -8.69032875514e-05 0)
(0.000642014641752 -0.000196724170205 0)
(0.000605697484538 -0.000282851113285 0)
(0.000562443082332 -0.00036420524782 0)
(0.000508056038701 -0.000455895637613 0)
(0.000428135180005 -0.000516604635073 0)
(0.000339883639579 -0.000543113548682 0)
(0.000229560916918 -0.000557119275859 0)
(0.000152420589665 -0.000693242391601 0)
(5.28226303149e-05 -0.000741269243667 0)
(-2.90766834431e-05 -0.000486070848293 0)
(-0.000131422763909 -0.000668700139711 0)
(-0.000235816284545 -0.000741360556024 0)
(-0.000144843516525 -0.000430435473815 0)
(-0.000161395377269 -0.00040451138102 0)
(-0.000386421948098 -0.000670696372355 0)
(-0.000464799583874 -0.000689594805852 0)
(-0.000529847614513 -0.000659702624295 0)
(-0.000564728336949 -0.000585257547384 0)
(-0.000632983402233 -0.000525443549591 0)
(-0.000506421526643 -0.000294207903055 0)
(-0.000580452535861 -0.000213459776299 0)
(-0.000652630837184 -0.000210192729815 0)
(-0.000709648236697 -0.000244808459557 0)
(-0.000891522145116 -0.000356178475405 0)
(-0.00101416061454 -0.000409552720304 0)
(-0.000983853260899 -0.000352471542887 0)
(-0.00103657267384 -0.000342227992866 0)
(-0.00114493529609 -0.000392023725266 0)
(-0.00121110083939 -0.000416531807381 0)
(-0.00125135796093 -0.00040703728967 0)
(-0.00129301666589 -0.000385483095228 0)
(-0.00134445689909 -0.00036140163699 0)
(-0.00138415017488 -0.000325527440021 0)
(-0.00143164609857 -0.000274813588598 0)
(-0.00141338624178 -0.000239456695725 0)
(-0.00149029015526 -0.000211769980654 0)
(-0.00147387338246 -0.000175031090935 0)
(-0.00144776402221 -0.000137217084832 0)
(-0.00147872393789 -0.000110599451879 0)
(-0.00158668871041 -0.000100222612598 0)
(-0.00154783236492 -8.79107067592e-05 0)
(-0.00155472835017 -0.000123273601474 0)
(-0.00168233982801 -0.000164674713389 0)
(-0.00170379408727 -0.00016876418682 0)
(-0.00172054945819 -0.000146509824651 0)
(-0.00173241654141 -0.000122586390307 0)
(-0.00174152277846 -9.86102577096e-05 0)
(-0.0017498357708 -7.19444883017e-05 0)
(-0.00175631241228 -4.16199528249e-05 0)
(-0.00175994576057 -8.50408712462e-06 0)
(-0.00176071930073 2.5150152315e-05 0)
(-0.00175801978953 5.74082736733e-05 0)
(-0.0017509501878 8.82005505271e-05 0)
(-0.00173933593038 0.000118980498086 1.50632568056e-28)
(-0.00172346690413 0.000151583577661 -1.50198073192e-28)
(-0.00170337584707 0.000187725246119 0)
(-0.001678539649 0.000229020460544 0)
(-0.00164811590657 0.00027711742376 0)
(-0.00161108283241 0.000333832712403 0)
(-0.0015658073677 0.000401193156987 0)
(-0.00150972652068 0.000481413515582 0)
(-0.00143933538033 0.00057692794258 0)
(-0.00134994810777 0.000690677484678 0)
(-0.00123571214568 0.000825996382574 0)
(-0.00109093901827 0.000983263017643 0)
(-0.000913381066919 0.00115366514902 0)
(-0.000706472858623 0.00131891812286 0)
(-0.00047708427121 0.00145699767162 0)
(-0.000234736325483 0.00153849347323 0)
(-2.42347598739e-06 0.00152378352154 0)
(0.000192687804114 0.00141677127455 0)
(0.000348011738443 0.00125424344487 0)
(0.000448844004657 0.00104943606154 0)
(0.000598062232079 0.000840321097161 0)
(0.000607230231719 0.000486841521684 0)
(0.000684509795111 0.000354942444492 0)
(0.000755250075086 0.000245611707639 0)
(0.00077352576211 0.000135613619937 0)
(0.000767184113416 7.74356627184e-06 0)
(0.000713886784981 -0.000133125903242 0)
(0.000656079883451 -0.000240239808891 0)
(0.000628528256083 -0.000326439512714 0)
(0.000588773435939 -0.000416063777363 0)
(0.000543781926529 -0.000517875332003 0)
(0.000463619769738 -0.000586689669621 0)
(0.000383478858134 -0.00064999979114 0)
(0.000257154311777 -0.000680307179371 0)
(0.000153162867691 -0.000785917241607 0)
(5.36581900406e-05 -0.000861889575954 0)
(-4.16838355007e-05 -0.000576221853598 0)
(-0.000152758587918 -0.000775574287611 0)
(-0.000199196415204 -0.000760099261807 0)
(-0.000139613590572 -0.000471868632466 0)
(-0.000229762597932 -0.000542629468687 0)
(-0.000404179741052 -0.000768376853886 0)
(-0.00042961672433 -0.000750683943501 0)
(-0.00051601349531 -0.000720145194556 0)
(-0.000485192200959 -0.000578802875885 0)
(-0.000642698162314 -0.000588512727158 0)
(-0.000493147516022 -0.000320903525598 0)
(-0.000592607710453 -0.000282830052213 0)
(-0.000646627810129 -0.000283967140931 0)
(-0.000764885857265 -0.000369993651607 0)
(-0.000922430128709 -0.000483445894646 0)
(-0.000997966732935 -0.000468341202869 0)
(-0.000963800796151 -0.000389386957664 0)
(-0.0010481946612 -0.000417788022339 0)
(-0.00113769267457 -0.000465988900724 0)
(-0.00119358882042 -0.000471911274774 0)
(-0.00124355012958 -0.000453796137001 0)
(-0.0012772860988 -0.0004255377227 0)
(-0.00132331046549 -0.000398973402183 0)
(-0.00134106322399 -0.000360010409747 0)
(-0.00135229126037 -0.00029287588089 0)
(-0.00143936521843 -0.00026328306792 0)
(-0.00136134536969 -0.000228935088035 0)
(-0.00152176593932 -0.000197389728143 0)
(-0.00143156807266 -0.000159595713727 0)
(-0.00157235271376 -0.000155015123623 0)
(-0.00148163617908 -0.00012420359165 0)
(-0.00161747419329 -0.000128274697782 0)
(-0.00165588605367 -0.000173570146537 1.62330128907e-28)
(-0.00169149091313 -0.000207118277303 -1.66742860101e-28)
(-0.00171055536454 -0.000192213563938 0)
(-0.00172683105298 -0.000163837561205 0)
(-0.00174087292432 -0.000135351148206 0)
(-0.00175131766797 -0.000107877268077 0)
(-0.00176006138611 -7.88754579549e-05 0)
(-0.00176705848388 -4.65410454322e-05 0)
(-0.0017713491689 -1.12247105533e-05 0)
(-0.00177247414209 2.52895134605e-05 0)
(-0.00177001600494 6.14135525562e-05 0)
(-0.0017634913697 9.67925525724e-05 0)
(-0.00175281587646 0.000132260587416 0)
(-0.00173810296897 0.000169328177352 0)
(-0.00171932548853 0.000209849821535 0)
(-0.00169612160109 0.00025582553448 0)
(-0.00166789959525 0.000309324856239 0)
(-0.00163384149653 0.000372698129995 0)
(-0.00159244699458 0.000448857520719 0)
(-0.00154103151466 0.000541352423149 0)
(-0.00147537805045 0.000654409837522 0)
(-0.00138924314574 0.000792650048631 0)
(-0.00127475883896 0.000959046995923 0)
(-0.00112500584716 0.00115015868345 0)
(-0.00093746070761 0.00135168486331 0)
(-0.00071403848808 0.00154379147923 0)
(-0.000458733937086 0.00170501732717 0)
(-0.000184909757841 0.00179455247947 0)
(6.53192675134e-05 0.00175146870711 0)
(0.000258460541379 0.00159113425172 0)
(0.00041282779389 0.00138800270076 0)
(0.000545491248277 0.00116252036277 0)
(0.000668459067136 0.000901626856411 0)
(0.000777116937766 0.000600151641032 0)
(0.000750628206329 0.000374691750487 0)
(0.000823309478249 0.000281107204862 0)