/*--------------------------------*- C++ -*----------------------------------*\
| =========                 |                                                 |
| \\      /  F ield         | OpenFOAM: The Open Source CFD Toolbox           |
|  \\    /   O peration     | Version:  v1806                                 |
|   \\  /    A nd           | Web:      www.OpenFOAM.com                      |
|    \\/     M anipulation  |                                                 |
\*---------------------------------------------------------------------------*/
FoamFile
{
    version     2.0;
    format      ascii;
    class       volScalarField;
    location    "117";
    object      alpha;
}
// * * * * * * * * * * * * * * * * * * * * * * * * * * * * * * * * * * * * * //

dimensions      [0 0 -1 0 0 0 0];


internalField   nonuniform List<scalar> 
6400
(
0.823267940349
1.22076690067
1.85825595176
2.09092217182
2.33246080297
2.62531996485
3.18315140215
3.84778288752
3.90468424616
4.1343186566
5.23362035215
5.63350333377
5.90884788773
6.33258011645
7.05200681498
7.78280847656
8.27128309652
8.75716657401
9.22098062452
9.4087982245
9.27245966836
9.12240884511
9.21841969054
9.65277675532
10.1803691388
10.6045227758
10.8260390378
11.0035298921
11.2927858758
11.7023442185
12.1825677756
12.4237690887
12.3783353241
12.2506527997
12.0388527597
11.5825453894
11.3083960721
11.5869135155
11.27715842
10.5667115309
10.2870883528
10.6437321055
11.0703438979
11.2662979382
11.3186873498
11.2528474989
11.1542962132
11.0980440799
11.0792942533
11.0867959601
10.9207738056
10.014544068
9.28965460773
8.52622073896
8.33757317724
9.05517545604
9.17453608478
8.02511485612
6.57003113153
6.19715651149
5.47133222401
4.63064491233
3.7796306595
5.55569567199
9.64009528357
14.5830146201
17.5710736024
17.2682533123
15.2394128313
13.517222574
12.517778824
12.5625597552
12.9693050008
12.765462448
14.719229949
14.1259208515
15.9735602297
9.8675735079
12.8672709436
4.80949827508
3.06931994284
2.36388786454
2.87974139594
4.0603755649
3.66188734689
3.1718378689
3.10798813266
3.32577110067
3.69478796745
4.19536788358
4.85579864235
5.51488463143
6.06527909113
6.59034224279
7.10314033845
7.71551264069
8.3560476349
9.03989986461
10.1597460576
10.1098879505
9.66170811352
9.37529391968
9.28390158146
9.61792466892
10.4865007182
10.7380561119
10.8782266203
11.1503364622
11.4885870797
11.8605740886
12.2620856779
12.7668672313
12.7357953034
12.6490645884
12.5660095666
11.7973460163
11.7351588032
12.0032805703
11.4841397267
10.3433368755
9.96252426348
12.7031094391
14.1798549504
14.2018993786
14.1119167223
13.6913097258
13.0879136803
12.6445537504
11.954304237
11.4230735149
11.4995936252
12.345297438
12.3700385093
8.75030114039
8.91212553292
8.78282533078
7.0968182546
6.09313199721
5.34027224892
4.5919580904
4.05182255651
4.93296725621
3.92132225889
5.70040596209
9.67446960281
15.4869558163
19.2042599416
18.0074014443
15.8138320783
13.8215988085
12.9843214395
13.2489696746
14.2055461072
13.5606982529
13.3461467789
12.7805139302
11.558828467
9.71166450989
8.16519042727
4.24846296737
3.0054256822
2.52337073167
2.99968324401
3.02251878954
3.19598622484
3.45865780832
3.36424794473
3.28666087112
3.63135912485
4.18291504737
4.82727183043
5.50553560845
6.11262995784
6.65564838383
7.04147636226
7.59316786315
11.0189844214
13.217388447
13.39814251
12.2558265673
9.56343378923
8.75115407595
9.54131691329
9.9410717414
10.2124643251
10.6526054804
11.0298146906
11.3112219569
11.6283804754
12.0463654645
12.360614535
13.0879723125
13.1563829706
12.4726436261
13.3854362116
12.6710683085
11.5539326612
12.5651814624
11.9141683502
10.6169716355
10.1653512957
10.6344213307
11.1706383849
11.4165652165
11.4889517423
11.462144908
11.3662230812
11.2191841597
11.0193919782
10.7885217834
10.5241192605
10.1509946493
9.63502959801
9.47420157055
9.50921322891
8.18838806517
6.97532375163
6.12575475467
5.42397367485
4.81767860716
4.40429886036
3.96551066632
3.74561046325
6.35592848642
11.5966731194
16.3091708625
18.6190000804
18.7231330733
17.094944509
15.3491710836
14.5493628464
14.3431959545
13.6015451679
12.9390869511
12.8503808033
12.4581957058
11.44749808
9.81550688718
7.37520941357
7.5590287653
2.73389921626
5.27393153271
3.04531848719
2.94596305001
3.55628547149
11.6551296944
9.95142584061
4.19258159569
3.66503855754
4.22206299236
4.8502849469
5.52806349048
6.11579820218
6.78776189407
8.93673665113
11.355001296
13.006365479
13.0340742971
10.9918195955
8.96423648033
8.87075879294
9.03606919392
9.27441812058
9.74594014245
10.3033325722
10.8335806056
11.2809691119
11.4954781314
11.9279587464
12.1255781287
12.9026321078
12.9771351494
13.865386417
13.4780298861
12.2621789858
13.0038970131
12.047681296
10.9327804047
10.6759877354
10.5532033084
10.5521569207
10.8332536893
11.1957615968
11.4301524955
11.5315279592
11.5301642017
11.4501481893
11.3104229531
11.1196310863
10.8883514791
10.6151333797
10.2865312053
9.9107092628
9.52948175831
8.98083844625
8.09392462029
7.08607092766
6.23745179017
5.58599087303
5.09795970093
4.75699567011
4.51366396156
4.70383165079
6.77957835419
10.7292496495
16.55176477
20.1422055325
20.3319259952
18.6385160996
16.2483987918
14.5674980385
13.6773893335
13.7518582607
15.0697175451
14.9509722519
13.5861190607
13.409353735
16.6822200879
13.0690771214
11.0732179636
5.18151851229
7.24054006028
3.40882237651
3.73440257255
6.03778990172
11.5316048971
7.55561243088
4.20829107085
4.12980019112
4.43888876858
5.00617523108
5.72994827079
7.27021823121
10.0754735961
11.0246507637
11.113498848
10.5245415046
9.38655145156
8.66440828564
9.03516389223
9.02682102651
8.95291442762
9.3144833014
9.85197716629
10.4666489804
11.0794243735
11.4108976681
11.9959058393
12.0236195974
12.8924498266
12.8047906999
14.5223282535
13.6454715052
12.5659453267
12.9198121248
11.591534219
11.0539235146
10.8154111658
10.7416140649
10.7359886972
10.7899925581
10.9845989074
11.2513612424
11.4645465485
11.5800036752
11.5962546272
11.5296745579
11.4000806789
11.2223583568
11.0053074064
10.7472085825
10.4439332996
10.0938010558
9.6666532743
9.04201340147
8.16402390562
7.21717865482
6.42458227473
5.86022642456
5.49514860165
5.29296554767
5.29374820624
5.86167185362
7.14622442632
10.4429436654
15.8998444942
20.1275281324
21.5166419077
20.3040100647
17.4998524676
14.968414343
14.5687901645
16.737007312
17.5447782466
16.4522637951
15.4861150281
18.0902956022
21.0780298949
16.3574338181
15.4542879523
9.54253280649
8.63983559513
4.21159365229
5.11235300012
11.7800549379
11.1791088144
5.21706165618
4.60084001741
4.64341940725
4.76014335813
5.36461603267
8.51983922524
12.1291973537
12.3666232084
11.6931509342
10.0424159967
8.70071333329
8.2946610821
9.20384318019
9.07735492332
8.73223292314
8.96946911664
9.46260559747
10.0960050424
10.5752006524
11.2200900668
12.2207190888
12.0047432905
13.263121843
12.7353907635
15.0236947384
13.9273128652
15.3417962964
13.3920783812
11.5204511529
10.911072769
10.8306128011
10.8488353493
10.8816188332
10.9147282345
10.9900425996
11.1475028187
11.3559518428
11.5438458543
11.6585314973
11.6842793027
11.6275657085
11.5098401112
11.351716043
11.1608958034
10.9319137339
10.6536120975
10.3032552503
9.82720695494
9.15396340301
8.30355017622
7.44171114241
6.72901613346
6.21263545568
5.93091408963
5.87126028626
6.29326511439
7.85056486241
7.11867172872
11.5814241642
17.4358655658
21.2258306075
22.632893088
21.6603308436
18.2527912645
16.0469196552
17.8199926489
19.9742514795
19.3899869666
18.3334523511
18.3416153856
22.8392865571
24.3878107568
19.3235281148
19.1019875532
11.5864822124
8.12566822598
5.12523484449
4.8987537694
11.6219763762
7.46201375394
4.98344832654
5.05165204723
5.11462828008
5.82572277426
6.10164936855
12.1535896452
12.5555718865
12.4050185784
10.4475712425
8.40522820854
7.92955451096
9.45513583669
9.29339243062
8.54675541175
8.72709521934
9.07262106229
9.56351651935
10.1915760457
11.0960915539
12.0904537644
12.1267486349
13.8683542575
13.0248599223
15.5568351594
14.2604034758
15.7584628645
14.120322769
13.0234633689
10.9387467131
10.651643706
10.8161858963
10.9623329767
11.0289401888
11.080713358
11.1734016444
11.3163574672
11.4924496154
11.6582729038
11.7669497831
11.7951982518
11.7466619109
11.6457199555
11.5154074082
11.3596333068
11.1649313973
10.9074119744
10.5482946756
10.0364311037
9.3456860994
8.53777552783
7.75281048346
7.09741663015
6.60075197972
6.29483792275
6.37589801753
6.94436830229
7.3140810115
7.96242516979
12.4105555788
19.6424433611
22.3421529316
22.7719165266
21.6753743763
19.387962729
19.1989009651
21.7778271932
22.1691412817
21.2600691929
20.5966121502
22.461617048
25.1188925661
26.5428694728
21.864734754
20.6776733576
11.1233995485
7.31883087876
6.13206527911
11.566082266
11.5478441992
5.7172054317
5.49044152853
5.5500203491
5.80985505397
6.32391242201
11.9926793708
12.831436756
12.6574987929
11.8791611655
8.6994974034
7.57664855396
9.4464303105
9.72981000275
8.6417307326
8.34280730346
8.78175620636
9.34109847122
9.80389125048
10.535390684
11.1191107668
12.6776090525
12.2811397198
13.7178965086
15.4827895776
15.512203002
13.5997657506
14.7398164188
14.5563613802
11.3971075799
10.7728501651
10.7417564919
10.9066934257
11.0783812264
11.1747498758
11.2447890291
11.3500979951
11.4942323663
11.6548819357
11.8025747726
11.9017529556
11.9292533584
11.8904981342
11.8127456061
11.7181965232
11.6039912267
11.4465986817
11.2087604889
10.8420944663
10.3093205456
9.62321382965
8.86296394476
8.12577398025
7.4464334164
6.82049929518
6.42840432241
6.65370724433
7.34080247213
8.17149523216
9.26624926587
10.4899315062
19.3047746294
23.7191740671
23.8863135142
23.3372844142
22.4880063457
23.4795837656
24.8743212069
24.1311280542
23.3642156382
23.4552294175
25.6387319802
26.1854172356
26.7159746041
23.7208290139
21.4728661653
10.1318974887
6.79619330119
6.77541161561
12.4422893716
10.0810134914
5.8985841287
6.04013158997
6.1989763247
8.0146692338
6.21470245004
12.7656839812
13.219143756
12.6171344239
10.177696808
7.81611852552
7.68331604029
9.59938111161
9.19950549263
8.37995680242
8.36806312208
8.75127550422
9.49842612131
10.1415429956
11.5079146637
12.7941779015
12.4066762007
15.0686566486
13.1376916649
15.9016002516
13.8581283776
16.0346218973
13.2389300666
12.055751111
11.1233903679
10.8667163732
10.8971377447
11.0259125107
11.1908468603
11.3176778415
11.4176462777
11.5359464433
11.6824580417
11.8375989025
11.973290127
12.0605399251
12.0864036434
12.0625319232
12.0156732901
11.9632768786
11.8957270716
11.7789286067
11.5624610532
11.1931326233
10.6517910031
9.98089755171
9.25578306412
8.50556248335
7.66140135825
6.70450503692
6.14230640383
6.73214833558
8.12016439351
9.49974322733
10.6212752708
11.6104510068
15.2058767366
23.5749957353
25.228370616
25.4618476342
26.3758236381
27.6312705843
27.3120820396
26.2293810299
25.9103544062
26.7185473743
27.7099111413
27.3846671204
26.6501222903
25.4910335591
23.9726089977
9.19528726641
6.85496525872
8.00538186574
12.4122390857
7.28203443769
6.92540212751
6.58411781251
6.83850103799
10.8339264459
9.25875593408
13.5903920275
13.3872889064
12.5565835982
9.01808967166
7.6047151215
9.72650180375
9.88768623189
8.77961306014
8.29299035857
8.56261903545
8.86433212378
9.55311979926
10.0395267547
11.6979665305
14.3566338313
12.1528469991
14.9173534243
16.0121345999
16.1254928044
16.3539806652
14.2060280472
14.1092444171
11.366555183
10.9449328884
11.0003509849
11.0584626211
11.1564553116
11.3021282868
11.4514117192
11.5915594743
11.7356087639
11.8885564974
12.0399502277
12.1672593199
12.2454789216
12.2694386004
12.2632462755
12.2554438572
12.2531014855
12.2368760748
12.163976421
11.9720374537
11.604818026
11.0624893126
10.4075195502
9.68511200687
8.80385880531
7.53529269116
5.95867657147
5.45127402102
7.11989762268
9.351580859
11.0661643036
12.3551670554
13.4050662281
13.5960427662
14.94359639
26.9001325685
29.7748800449
31.1638223829
31.2409146106
29.8416449531
28.8318645104
28.9281000327
29.8161944583
29.8665463443
29.3666797688
28.8508904894
29.0130899543
29.0819603443
8.69986428895
7.4050510161
11.8244333265
12.2694380328
6.8211219282
7.5924447212
7.08239454374
7.94384842398
9.9041548759
13.123130641
14.2383633638
13.4897436096
12.5949302712
8.60391147158
7.64525494537
10.3679214023
9.8352777097
8.60699800951
8.28688057075
8.71414263614
9.38302867666
9.852620123
10.2284567744
11.2067239743
14.4534051206
15.6403632822
13.9319956846
16.1984945823
13.7247214211
16.4133629076
16.3255757997
13.8812805382
11.156670942
11.0424219719
11.1712464067
11.2327406571
11.3094949151
11.4328278768
11.5816342814
11.7600367972
11.9459546609
12.1135805132
12.2635082412
12.3845173248
12.4558079408
12.4817913518
12.4977432692
12.5330985865
12.585594566
12.6255985022
12.6008357867
12.4369317804
12.0770899943
11.5401336153
10.8912664156
10.0976599454
8.80461637181
6.5776489542
4.59597620617
5.26643106578
8.430833761
11.2788732217
13.127232511
14.392672555
15.1776925578
15.3130937195
14.9782851569
16.9675923146
31.335856533
36.777997395
35.6289984604
33.2613899791
32.3019824905
32.4980470557
32.8937909129
32.8111523138
32.7339143763
32.9193999649
33.2720517487
33.8349255164
8.6123046247
8.07736359991
13.3506542297
12.6130409372
10.2431977436
8.68815125944
7.75266518687
9.52669205993
8.90292139182
14.0404052637
14.6848506489
13.6372132641
12.3699609431
8.84680492362
8.43054302512
10.9084157531
9.68898005003
8.55693666799
8.38348266426
8.74334878799
9.60508531496
10.2645148301
12.3988442976
11.3421897789
13.7770025662
16.0120260794
13.4347245228
16.5261955555
16.9404877327
14.6986515669
14.6360542657
11.919865289
11.5259350371
11.3637929765
11.3841802815
11.4413425988
11.5021035112
11.6025498904
11.7181971225
11.9019768991
12.1480920014
12.3660744218
12.5181702061
12.6267535277
12.6932404524
12.7272450658
12.7697940547
12.8497098674
12.9578360437
13.0559806776
13.0796779384
12.9477832984
12.6110151113
12.0861961415
11.4001059162
10.2876923919
7.86778560148
4.73353325061
3.72263793352
6.29633856956
10.7742868906
13.892970505
15.7160791712
16.9630826529
17.6629042369
17.6331313808
17.2305469631
16.3608102612
27.2809209543
37.7232291361
40.6297209135
37.871823729
36.9224032663
36.9691111517
37.042668864
36.7583393145
37.1286071009
37.4768044958
37.0487625823
37.084174354
8.92050715645
8.59101385877
12.8996005996
12.8416737114
12.7517007345
9.50868976875
8.56149624669
12.7263633333
8.8667422653
14.8767875985
15.0216752897
13.8039607928
12.1741225133
9.17420263621
11.9170659707
12.0295651605
9.66400319301
8.64917066051
8.61203848573
8.90724575732
9.57182191464
10.1873579339
14.0467961381
15.1280663358
12.8893721841
16.1221936077
16.8739152315
15.8728807259
16.9220883418
16.819506907
15.323681651
11.8182001777
11.7290397784
11.6881303459
11.6422668766
11.6577922601
11.6832565738
11.805370256
11.9390112147
12.0718790226
12.3193300551
12.6043977996
12.8022407592
12.9067708556
12.9637224665
13.0091675779
13.0831478983
13.2070455455
13.3656136333
13.5136349164
13.5795192
13.4896471566
13.206174627
12.6830660824
11.8201921511
9.86379929342
5.90957933682
2.87253522105
3.76481363536
8.53480736544
13.9569599669
17.2028502417
18.9248992232
20.2637003336
20.7149371075
19.894369124
18.9694589648
18.269888037
23.4406070843
34.8511855472
41.9697301735
43.1815599989
41.3181691134
41.4809384393
41.3503601531
41.3951756858
41.9124804063
42.0118526985
41.5519376698
41.4958727265
9.28138903877
9.09583265824
8.86031197153
13.0224930835
13.0746909385
9.93743812465
9.32286221762
13.4970169917
9.18647764291
15.6965895949
15.2997394976
13.9764802971
12.1115891294
9.27905796607
13.1402556094
12.2767578251
9.79572746668
8.89390936036
8.90125848088
9.25659572918
9.66134670609
10.1180563729
14.7122062011
16.0621886263
13.0545949636
16.2671467707
17.3813272587
14.6215144454
16.5388503046
15.9941343824
12.4949781275
12.1879176834
12.1402700681
12.0279980491
11.9072588325
11.9447872043
11.9512362298
11.962403655
12.131960123
12.3209568145
12.538575134
12.8323270903
13.0825944826
13.2167874198
13.2771238902
13.3354892992
13.4398492637
13.5983546332
13.799985297
13.9889951999
14.0666121547
14.0394382095
13.8610034249
13.3403532518
12.0355296828
8.26002197064
2.99555533885
1.01015910108
5.26500866391
12.2943084991
18.1988087149
21.429228418
21.631084704
20.4816697282
17.3476755475
14.7007296871
13.1090533779
12.0765522867
9.94007776288
13.4719967774
41.6237060553
45.3020177512
46.540865476
45.4963417765
44.6795793793
46.1240244447
46.5999093961
46.5553440139
47.2539782567
47.5814830641
9.80285544964
9.84022191342
13.5843510477
13.4623166715
13.2732516166
10.2585737025
10.2293613917
14.048433455
9.96603688547
16.3625014125
15.5341852093
14.1469859325
12.0945504128
9.50698882064
13.2812134159
12.1223506477
9.94168806283
9.17918217893
9.18390955058
9.49704449582
9.88664452589
10.2559937851
13.7551839464
16.8048507244
16.9359835139
15.1909485867
17.5237838109
18.1132106123
14.0589146362
12.8876302706
12.2942863386
12.3420515455
12.3498894643
12.2934570337
12.260906848
12.2120998332
12.2108723484
12.259641033
12.3155168596
12.5379582673
12.8085157311
13.101338263
13.3687240176
13.5388129
13.632875682
13.7075911309
13.8307152565
14.0451622392
14.2961154381
14.4562359877
14.4966447992
14.5643010083
14.5449185834
13.9131146332
11.499004443
5.88768604211
0
1.91257881454
8.83588930468
17.3895879675
22.4313555681
20.1364179825
13.8968142213
4.15425784172
4.52794844366
5.79348555562
6.8313387185
7.30593325687
7.28763719219
6.26617917033
3.68920673022
30.7330583625
49.766553144
51.4969876895
48.1834721163
49.5417916489
51.8476246886
53.0161447166
54.8594191957
55.0793493584
10.2493725239
10.4206636822
15.0727457705
13.8209857953
12.9400326833
10.6193772211
11.1564437888
14.4036413563
14.4173056469
17.1259581543
15.7811327025
14.3699788041
12.0924374484
9.89121687918
13.4176442471
11.9300614563
10.1226480371
9.48482417424
9.43940947178
9.68792186384
10.0717019635
10.598385902
12.8856339481
17.0241300338
18.326672415
14.212256469
17.1136482018
17.8990770198
17.0679954014
13.7466640097
12.4918602361
12.5433485789
12.6517901529
12.7052419503
12.4974061221
12.494394587
12.4446999983
12.5147189931
12.5846600209
12.7656611445
13.0797784845
13.4115403477
13.6669989754
13.840429848
13.9957865599
14.1995183704
14.4204499774
14.6719014925
14.814948614
14.8929364943
14.9920495613
15.1024193868
15.3638893407
14.7618681991
9.84751151365
0.331140455567
0.0334730812414
5.78140380657
14.2354905727
19.2072402261
13.7274040246
0.733140874402
0.051679436699
0
0
0
0
0
0
0
0
7.18772832907e-06
0.00242427196233
0.362619412546
44.3375101523
56.749425338
57.0297601683
60.4613403982
64.0948472994
63.587886255
10.590048746
10.7912050543
17.3873084389
14.0196113498
12.2249064247
10.9592500332
11.7832984958
14.0714196625
15.9633420461
18.0029792435
16.151526855
14.6879191373
12.2867148191
10.6181514813
13.7676451959
11.9129275865
10.413283788
9.86109186438
9.7363746675
9.91260839275
10.2348568936
10.7390881871
12.4817224382
16.8740402939
19.2558071455
18.2315013113
16.3357769206
17.2014279464
16.3504224749
12.7902050779
12.9587108788
13.0868678649
13.3422790128
13.1634613235
12.9790000854
12.7565243788
12.7876116485
12.7600908638
12.8640492746
13.0398364498
13.3236555796
13.7038324345
14.1048115046
14.308567116
14.5112558931
14.8290398128
15.1974562871
15.4984167656
15.6388165319
15.7851072878
15.9712542685
16.1886411602
16.2267863176
15.6323368899
10.4497835349
0
0.398252209092
9.16889035811
10.5707587829
0.22770842003
0
0
0
0
0
0
0
0
0
0
0
0
0
9.261387131e-05
0.000920320224867
0.0201754133762
0.97827789599
61.3043907899
68.3464043033
66.044582631
10.8336236265
11.0208990211
19.5734441845
14.1100247777
11.8604707095
11.297289977
12.5799463646
12.7754485347
16.9223649545
18.6124550489
16.5205351903
15.0199026843
12.7071242565
12.8653760473
14.24293335
12.1583150262
10.9244518063
10.4732899222
10.1434259521
10.231801391
10.4587482136
10.8960178662
12.3392579567
16.739525564
19.595992905
19.8839926445
14.969141863
15.2188813242
13.6617197424
12.8877299095
13.1087637211
13.6501743829
13.8378217897
13.5950235016
13.3927141402
13.4785470096
13.1361169369
13.0846704902
13.1352729709
13.2654272164
13.6905370725
14.1246579195
14.5239302377
14.6866665596
15.0867936296
17.3255122994
20.3332416203
21.2726018095
19.2984793783
19.1414572609
19.4893627794
20.1511406673
20.6889632624
20.8197227859
19.8754191524
0.0164312541178
0.308750720087
0.2709312912
0
0
0
0
0
0
0
0
0
0
0
0
0
0
0
0
0
0
0.00143085527591
0.00968951559464
1.78682701051
62.3779294717
11.0863567156
11.2473950913
19.2140364136
12.9186441631
11.6996579271
11.5688545361
13.4709250929
12.3044906889
17.6982662159
19.2085397715
16.8928527593
15.3438211478
13.0014300456
15.463203494
14.9515409412
12.6163017857
11.5364363551
11.6277326066
10.7804603973
10.7283936905
10.7946536448
11.0601745656
12.3782847379
16.5903332087
19.4244960222
20.998091506
18.9342198307
17.424186577
15.8178772305
13.2777879624
13.4612315144
14.5856665051
14.0380563623
13.9583216507
14.4801522119
13.922253711
13.6147622316
13.5363967993
13.5791423505
13.691019524
13.8854909552
14.4131748572
15.0937733325
16.4801202537
18.5840724937
21.4129117403
23.4434269933
23.3757791805
23.7257475511
25.4435051872
27.9224374141
31.7605637438
33.7909627615
34.842955694
32.568859212
30.0125480358
0
0
0
0
0
0
0
0
0
0
0
0
0
0
0
0
0
0
0
0
0
0
0.00440271861745
99.9779797086
11.4532123814
11.6066446107
18.609906334
12.0366705318
11.78014544
11.765016202
14.1865760336
12.4963232755
18.295090774
19.7889498215
17.2744479188
15.6961289587
13.2652477007
16.0112350404
15.585029034
13.1464234177
12.1273033545
12.403924143
11.5711725696
11.4608820093
11.3775531171
11.2080224927
12.6074348236
16.5562250585
19.1050640661
21.3655402604
20.2020235784
17.5218865428
13.7758953982
13.8312025647
14.2123795184
15.2850215061
15.4853286143
15.4459791899
15.2842146209
14.3990733181
14.1270341583
14.1100257567
14.1287192086
14.2598230139
14.4331933272
15.0552644181
16.4342061262
19.2297040457
20.9993841144
21.2050562627
22.3189592478
23.4044116375
27.5739645127
32.4037751971
39.4112688294
44.3527436421
44.995678353
45.5026053008
43.6982983909
36.6331622166
0.384360454852
0
0
0
0
0
0
0
0
0
0
0
0
0
0
0
0
0
0
0
0
0
0.000739891671273
0.000978944261261
12.0930731361
12.2520481012
17.8978519339
11.9470787379
12.2217803319
12.0761127762
13.7331975622
13.141725191
18.6197461575
20.3180029526
17.6952910027
16.1089383495
13.6883049939
16.5379063746
16.1858973595
13.832898745
12.8205509505
13.1858495421
12.3166619294
12.3509357827
12.3186211484
11.5560605558
13.0732443615
16.6746380123
18.9469599838
21.4594754209
20.6108780499
17.680917982
13.8719947431
13.9406078109
15.128218955
14.8268650389
14.7667694998
15.1458289222
16.2697076748
15.371116866
15.0419787445
14.6848709071
14.6554354479
14.9324990944
15.2654305515
15.9247632318
19.1530087578
22.1041113792
22.0460903409
22.1595440872
23.8907307255
29.381561363
36.3646894589
42.5214493866
47.3269356175
43.7011714723
34.4946478923
6.48459677169
0.0406873671447
0.0824699958873
0.0126643139854
0
0
0
0
0
0
0
0
0
0
0
0
0
0
0
0
0
0
0
0
0
5.46875648698e-05
0.00024832016276
13.1345704861
13.2128564777
17.7618224553
12.6793295509
13.3782973522
12.7722072609
13.5693831285
14.6280033604
18.2644972031
20.6170627605
18.1914701067
16.6082954829
14.2450331021
17.1384738293
16.8213197852
14.7235940956
13.7611960564
14.1732646185
13.057783183
13.3667335391
13.6649163774
12.231488531
13.5335461984
16.9302260292
18.9612753221
21.2054974454
20.7650616467
17.9138244414
16.8582437048
14.9146923358
15.6688231281
16.3288657957
17.2828096636
15.5662065412
15.8133222536
16.5930621483
15.8926222514
15.8675752292
15.5833745375
15.6052935245
16.0409300269
18.8938117719
23.3934732182
24.2874782948
23.5845114464
25.2513058803
31.8989829605
40.753095004
46.7435686725
45.4488868805
36.3708020694
13.5555828181
0.462572546578
0
0
0
0
0
0
0
0
0
0
0
0
0
0
0
0
0
0
0
0
0
0
0
0
0
0
0
14.6869221714
14.3952289057
18.1327215738
14.6718459806
15.4963812492
13.8997825136
14.237628656
16.8720307631
18.1043098872
21.0327626975
18.8350416261
17.2119779573
14.9215261133
17.7708656604
17.4509572689
15.7347013548
15.3460943012
15.5332227474
13.8775438736
14.5352451115
15.3845151748
13.3464613766
13.7685078308
17.2300765728
19.1408850251
20.914743734
20.917667085
17.7734885011
18.0458472967
16.6855905997
16.9900249368
15.1875991854
15.8551665843
17.3156534329
16.6935041916
16.8511528264
16.806720916
16.6741517902
16.7864189405
16.7297294552
18.526269691
23.973307464
26.922372048
26.8431501918
27.5027858789
32.6657399588
42.0678625074
47.7918777251
36.762848166
18.8928491473
17.5605490879
0.51727145731
0
0
0
0
0
0
0
0
0
0
0
0
0
0
0
0
0
0
0
0
0
0
0
0
0
0
0
0
16.3862497325
15.4818079355
18.6074874819
17.5250190532
17.1535929424
15.29034492
15.0012003489
17.9142156598
16.4691751559
21.2930434522
19.6157475683
17.913749338
15.7119357897
18.4202889336
18.032836641
16.5540527476
17.8488472037
17.1979407411
14.8331751908
15.9247066687
16.7636807696
14.8381612905
13.4732922794
17.0829112122
19.2163452559
20.6439135684
20.8991839423
17.7167620202
18.2184132198
18.0207767246
18.0754959082
15.8060855906
16.425710654
16.5274559462
17.6401864126
18.1152861964
18.0174526199
17.7624070093
17.7018719234
18.7767142776
23.9288457253
28.8780819147
30.582939282
31.1758418416
33.9840326829
40.5734835225
43.2640094076
26.1518136179
21.5726931901
20.2671175835
0.882181035847
0
0
0
0
0
0
0
0
0
0
0
0
0
0
0
0
0
0
0
0
0
0
0
0
0
0
0
0
0
17.0697527628
16.2347814114
18.8423610708
18.3994777791
18.0477842917
16.6560770039
16.0528020848
19.235742705
17.3322062706
21.6844480693
20.3995015062
18.669643663
16.6064226636
19.1067520669
18.6481034934
17.2531643821
18.6951102405
18.1380546124
15.795934284
17.3557133151
17.3144246088
15.341853448
14.6547439261
14.8321283704
18.6731421723
20.0414868582
20.589264458
17.6236419281
18.1585678352
18.3900257491
18.8679211329
18.1606813819
15.9372431006
16.2983515555
17.7335740976
18.9370624366
19.3443585748
19.495073614
19.4536261391
23.6911324643
29.6885089398
33.3084772789
34.4647678778
35.7350979007
39.2374829616
37.4863415034
21.214978025
23.7767803545
22.6682259875
2.35820109964
0
0
0
0
0
0
0
0
0
0
0
0
0
0
0
0
0
0
0
0
0
0
0
0
0
0
0
0
0
0
16.9167784138
16.7531499048
18.9956956456
18.4325982179
18.6260794982
17.7366642906
16.9879094333
20.5228162247
19.0464415176
22.2163280255
21.2357184528
19.4605905042
17.5942538054
19.8430784666
19.3420685322
18.1238143283
19.3587181598
18.9631806144
16.8734784646
18.2638248797
16.1875186757
15.9035556973
15.5845773422
16.0517229595
17.0390395493
17.7963820757
19.6387948359
17.5099703661
17.3007162046
18.2457408111
19.1813718648
19.4747504565
17.6402487144
16.9711174138
17.4498890906
18.571781679
19.9746414225
21.2766642616
23.0872422202
29.2618508733
34.4483721578
36.9845493859
37.2790883736
37.3680596229
31.907098555
23.126039068
23.9097031033
23.2369547225
6.44278118583
0
0
0
0
0
0
0
0
0
0
0
0
0
0
0
0
0
0
0
0
0
0
0
0
0
0
0
0
0
0
0
17.0409699281
17.132742846
19.1807026809
16.8934596751
18.8110024232
18.2838684982
17.6100637099
20.9573223029
19.73112007
22.8060988258
22.1405013024
20.2686638956
18.6913231535
20.6169102157
20.0865851285
19.1416285339
20.0470615855
19.9022947401
18.0666749206
19.5525914584
17.4643819281
17.7440921087
16.7845222378
17.2485337602
19.1661955991
19.7563131014
19.2129413852
17.3695383331
16.4975937147
18.1524037376
19.1523917812
19.5917606939
19.4654113485
18.0067204469
19.4807593156
19.3636165875
20.551698441
23.1003614975
27.6186184787
34.1858127557
38.2929653418
39.4656479952
36.9181168376
28.6357672195
25.7505057099
25.9396313118
26.8001258779
22.071216491
0
0
0
0
0
0
0
0
0
0
0
0
0
0
0
0
0
0
0
0
0
0
0
0
0
0
0
0
0
0
0
0
17.6946769021
17.7720226148
19.3160818751
17.2198936428
18.9412512783
18.5151584167
18.0473626632
20.9575861924
20.2341587358
23.2151572819
23.0691670668
21.048401497
19.899670274
21.3909736089
20.8139432993
20.1437080074
20.6891710307
20.9445116851
19.3188986723
20.8175727861
19.2463021382
20.0106274708
19.6363010747
17.8676628385
19.5797369891
20.7161242306
20.8387496073
17.2600549418
15.5432096206
18.0423477584
19.2581757859
18.6885140086
18.6715965971
18.228750708
19.3059423009
19.6954805574
21.3068178205
25.0759114634
32.0252980146
38.712615872
41.549009409
40.0957709842
29.740953934
26.567214978
27.431318987
27.1512220376
26.2308801545
1.55252065857
0
0
0
0
0
0
0
0
0
0
0
0
0
0
0
0
0
0
0
0
0
0
0
0
0
0
0
0
0
0
0
0
18.5365645401
20.0219988655
19.5596180142
18.2222483092
19.3843578192
18.8009134699
18.4721483271
20.9414429149
20.7202879522
23.2306691262
24.013420717
21.7759792228
20.97463396
21.9633265208
21.5320373077
20.8529074259
20.6110670208
21.9149961101
20.7109415283
21.907425061
21.3974690115
21.1813937365
20.8830589374
20.4199959115
19.3280418488
20.2900230267
21.7535239393
16.1360550564
14.9990258802
17.0551026714
19.220077167
19.4963031458
20.0196871507
18.1843941481
18.9825018899
19.9498253824
21.6809946949
26.8913992508
36.1107008898
42.8205173489
44.2563795299
35.7255631572
28.5421040094
29.8930809112
29.5527955667
26.8641630986
6.62328015334
0
0
0
0
0
0
0
0
0
0
0
0
0
0
0
0
0
0
0
0
0
0
0
0
0
0
0
0
0
0
0
0
0
19.146420886
20.6617155991
20.1737054768
19.1109199297
20.0310478306
19.3122031108
18.9736710101
21.0260903997
21.2183837584
22.9454357766
24.8752235569
22.537427998
21.559241158
22.4265191965
22.3887004513
21.4959613254
20.5386025253
22.58626967
22.2523829908
22.8445255713
22.6523390611
22.7078098028
20.7859437585
20.7901542145
20.2142883162
22.1396943176
23.053989289
19.056669299
14.5341056561
15.8341294007
18.5827157931
19.8465299709
19.8268396078
18.8162925303
18.4438424636
20.0898894643
21.6339064281
28.3228486577
39.7925657294
46.8922535053
43.6206089944
29.5024474515
30.4313623125
32.4460719214
31.4645080403
24.0651604916
0.257141040963
0
0
0
0
0
0
0
0
0
0
0
0
0
0
0
0
0
0
0
0
0
0
0
0
0
0
0
0
0
0
0
0
0
19.6127246471
20.9749910466
20.7346811369
19.7021189368
20.6910079856
20.0126139488
19.5684916844
21.3040882838
21.7959993263
22.2369280808
25.4449250963
23.41482993
21.9718919983
22.159897933
23.3139899693
22.3324909855
21.0029761851
23.1454799907
22.9882880247