/*--------------------------------*- C++ -*----------------------------------*\
| =========                 |                                                 |
| \\      /  F ield         | OpenFOAM: The Open Source CFD Toolbox           |
|  \\    /   O peration     | Version:  v1806                                 |
|   \\  /    A nd           | Web:      www.OpenFOAM.com                      |
|    \\/     M anipulation  |                                                 |
\*---------------------------------------------------------------------------*/
FoamFile
{
    version     2.0;
    format      ascii;
    class       volScalarField;
    location    "336";
    object      alphak;
}
// * * * * * * * * * * * * * * * * * * * * * * * * * * * * * * * * * * * * * //

dimensions      [0 0 -1 0 0 0 0];


internalField   nonuniform List<scalar> 
6400
(
0.847749206327
1.29690120719
2.00884068374
2.36986402845
2.72486954998
3.10923805765
3.70117004172
4.38613789136
4.59498280991
5.00969727589
6.14737562824
6.74566589656
7.20797796346
7.79181433515
8.61647545045
9.46899139995
10.1419358868
10.7821922426
11.337731948
11.5913910034
11.5602465203
11.582114757
11.8976936333
12.5447660998
13.2900656347
13.9262499875
14.375008137
14.7732765778
15.2476074588
15.8104873085
16.4080446863
16.7935386663
16.8979328217
16.8827908336
16.7655523253
16.4685658917
16.3586125519
16.6196038605
16.4411679238
15.9560545489
15.9137359156
16.4818378363
17.0880204539
17.3804119675
17.4402505993
17.3397586059
17.1535014719
16.9425873434
16.7162098046
16.489210325
16.1216328207
15.2661694645
14.276817314
13.1292404877
12.3825004988
12.2317333904
11.6092151254
9.97771743461
8.14877459141
7.19252089083
6.04118874547
4.82468422539
3.56649456077
5.15296180268
9.25410299617
14.2304998102
17.25163143
16.9871077974
15.0124748727
13.3671733629
12.4502773291
12.5696641881
13.0254155666
12.8552733917
14.7987052582
14.2083620274
16.0186758908
9.92435736656
12.8793906081
4.81840919712
3.09992754644
2.42360795714
2.9786341432
4.18643064921
3.91547323512
3.59789623772
3.66267791087
3.97990172308
4.4641568704
5.09943226465
5.89926625303
6.69633326798
7.37915372594
8.03052125825
8.68377253788
9.44647585773
10.2444009125
11.036796996
12.057419807
12.1045199886
11.8165510344
11.7577642401
11.9751747289
12.5738936625
13.5429565974
14.0723022721
14.4682283815
14.9304269359
15.4349903399
15.9612871181
16.5071827195
17.0575491343
17.1637404825
17.1602875543
17.1137729218
16.6326065334
16.6310945805
16.9073851632
16.6096513359
15.8564410519
15.7555406349
17.5797622524
18.8249367006
18.967078222
18.9254299963
18.6280830399
18.1773632386
17.7758794771
17.1837405953
16.6349387583
16.4159766489
16.6337278569
16.106498719
13.3535090893
12.8447161098
12.2099846742
10.4139131523
8.8645948731
7.50555843731
6.18556411933
5.07530797537
5.23692450297
3.89032914649
5.41672924057
9.33123203267
15.1841244888
18.9411594691
17.7594385955
15.6159563503
13.6905091367
12.9325641957
13.2659597705
14.26618202
13.6568808737
13.4548252343
12.8875819087
11.6496209673
9.78300810756
8.20410555823
4.29209389832
3.09630704308
2.6525117746
3.14618431862
3.28424433468
3.62204529827
3.95705367212
3.89008359127
3.91344328373
4.38476924109
5.08219858505
5.87792101481
6.69433515777
7.42989253041
8.09325093914
8.60582898992
9.28725622327
12.272082039
14.3621947015
14.6206684356
13.6919423117
11.6509901463
11.2838127711
12.1572423334
12.8173185437
13.3823386793
14.0337157677
14.5964128143
15.0633973813
15.5456779554
16.0871333688
16.5745108784
17.2765237148
17.4181445814
17.0202027635
17.5877096524
17.1238401355
16.4871355394
17.1767729931
16.862335519
16.1052786204
15.9995780968
16.5992623398
17.2323037849
17.5445873727
17.6283667583
17.5720036042
17.4127587494
17.1717790109
16.8506026645
16.4754564622
16.0514775875
15.4774042471
14.645762905
13.9396175671
13.3690752567
11.9075917309
10.3279027909
8.92498215335
7.6365917044
6.47331516647
5.56398946687
4.71599824912
4.18473785775
6.36695591879
11.4256703909
16.0810621793
18.3862283669
18.5279092997
16.9501191049
15.2648615694
14.530722457
14.3847001196
13.6984047558
13.0732976126
12.9908725607
12.588604827
11.5579662223
9.91158036628
7.4801757114
7.6415173332
2.94180567361
5.36399814891
3.31236963578
3.31907861212
3.95747091827
11.7386256973
10.0677471836
4.64778605327
4.3904299139
5.10170179721
5.90265829396
6.72892712996
7.44095453398
8.17429173555
10.0653521822
12.3172455478
13.9618732604
14.1433388143
12.5390013184
11.1266053656
11.2144622198
11.5541349295
12.0335013835
12.7249856748
13.4766879945
14.1864236001
14.7951169803
15.2215081918
15.7613072475
16.1710597023
16.9256221025
17.2296960501
17.8991424739
17.6064319155
16.8387738738
17.307824864
16.7875891997
16.2483954759
16.2154604055
16.2199885059
16.3564938507
16.7741324169
17.2499142124
17.5561167378
17.6782335226
17.6569972699
17.5242591177
17.3018742153
16.9999200295
16.6293927959
16.1833958573
15.6224318902
14.9257152697
14.1555360017
13.2110129114
11.9296785427
10.480232018
9.11291617299
7.91050779954
6.90982602069
6.14764648182
5.61207221383
5.61698043227
7.2021219222
10.7180432919
16.4153161626
19.9941494678
20.2102157072
18.5597551539
16.219540042
14.6027617831
13.781394586
13.8971253487
15.2100314111
15.090105488
13.7239513111
13.5292878881
16.7607331211
13.1891730014
11.228351829
5.37666284701
7.3702811353
3.86018155672
4.17884738947
6.25741223173
11.6204577447
7.82155084671
4.88903352029
4.88913012411
5.32555259285
6.05480707986
6.90644869606
8.35066565728
10.8949415697
11.8720821457
12.0841020381
11.7618709896
11.0735907073
10.76225176
11.1879053044
11.3586906964
11.5480318311
12.1073819427
12.8335662565
13.6210307468
14.3849450522
14.9288767274
15.5821079619
15.8785890204
16.6762023708
16.9238121086
18.2718951071
17.7687095726
17.0099002371
17.1630702149
16.4307080068
16.2181761362
16.227932894
16.316961687
16.4280665918
16.6112284788
16.9403089131
17.3201383183
17.6073393939
17.7515821734
17.758775735
17.6508839427
17.4497321661
17.1696834523
16.816691758
16.381657486
15.8441891342
15.1914176936
14.407654052
13.3993916386
12.1181664521
10.7317488432
9.45729468223
8.40223993718
7.60274823162
7.07262904183
6.86364943184
7.24343195601
8.06796179895
10.7224852742
15.8848915417
20.0614831416
21.4779282247
20.3106089785
17.5608411657
15.0982931554
14.7388955242
16.8885606462
17.6961397554
16.612302845
15.6513589615
18.2325915124
21.2023310043
16.5576417375
15.6789501146
9.70913501163
8.83463885301
4.78933298652
5.51681085019
11.8838537556
11.3108665912
5.81872161525
5.38381672405
5.457121024
5.66072583115
6.35181904088
9.22155276989
12.6515111964
12.973135815
12.4335237586
11.1086366974
10.2431237759
10.2182902931
11.0877646265
11.1915834869
11.1699372538
11.5971522598
12.2581120082
13.0454004955
13.7361343105
14.5222836637
15.4962327648
15.6593223085
16.7142971423
16.6559429916
18.3919024275
17.8935368247
18.8856405711
17.4785201499
16.2216188051
15.9737781971
16.1149700337
16.304901253
16.4753707636
16.6348259746
16.8392024398
17.1262721762
17.446830341
17.7117004395
17.8643076832
17.8921083982
17.8063956906
17.6287690781
17.3768772426
17.0548290059
16.651803872
16.148169652
15.5173859094
14.7135350176
13.6766271462
12.4343286606
11.1584184717
10.0297469492
9.13375136935
8.51571459017
8.19032368448
8.33947920429
9.38101422176
8.71804026686
12.2295686205
17.61661713
21.2877248429
22.7043753521
21.7830804206
18.4518755299
16.2933056104
18.0152718868
20.1427239289
19.5764309552
18.53227179
18.5635884445
23.0319414224
24.5781211728
19.6219725673
19.420796846
11.782725352
8.47659411968
5.82835068528
5.49821098638
11.763118735
7.84693953122
5.81283284848
5.8982214662
5.97755381033
6.65457513085
7.01513445242
12.5628164639
13.0873313142
13.0083259617
11.311119935
9.76906567853
9.67724227114
11.0424507915
11.1152721794
10.795683166
11.1793686447
11.7109882291
12.371021996
13.1553677387
14.1403474266
15.1279956801
15.4811942095
16.9439306914
16.6766647052
18.6056824978
17.9147698833
19.0963711351
18.0228984586
17.1569787428
15.8747847161
15.8245152914
16.1450842968
16.4357926402
16.6467528244
16.8354204178
17.0578068088
17.327708771
17.6149055821
17.8613346092
18.0162771238
18.0583718144
17.9936952945
17.8445275755
17.6298756585
17.3512644631
16.9929870127
16.5275215026
15.9149548046
15.1075168038
14.0861508693
12.9268831412
11.794044041
10.8245309553
10.0616892785
9.51339028094
9.29984556093
9.5165082252
9.67354828031
10.0705190615
13.4614719517
20.0548545182
22.6061929987
23.031433515
21.9902506601
19.7592553183
19.5152916252
22.0005211608
22.3921523948
21.5030442707
20.8680466527
22.7549809134
25.4205956773
26.8297658417
22.2849004568
21.1530002515
11.3915916898
7.87606127755
6.88957292924
11.7968790592
11.7582282831
6.46232471754
6.38246665968
6.47865509545
6.63777397383
7.16077663748
12.3750703053
13.254026195
13.1869445239
12.5226614352
9.83491584032
9.16609392248
10.8354178537
11.2531893708
10.6225609139
10.6412904791
11.2318612136
11.9339363405
12.6010469478
13.4619128329
14.2158070186
15.6011391855
15.6083095921
16.8988165364
18.4975751496
18.6739764902
17.4512539409
18.3399818535
18.2408764263
16.1640609569
15.7881894397
15.94088024
16.2586046357
16.5742967195
16.8213462254
17.0378776735
17.2770047901
17.5459591135
17.8175827981
18.0507917993
18.2050753279
18.2583771467
18.2162362398
18.1020842344
17.9343329021
17.7101923838
17.4070022373
16.9872657586
16.4035014393
15.6208660032
14.6600014378
13.6228162492
12.6421945202
11.7795889193
11.0125214193
10.4043708752
10.2063350952
10.4530369018
10.9428879486
11.7584207252
12.5297911734
20.0542895073
24.2731231626
24.4156648498
23.8761880274
22.9948889214
23.8547065032
25.1724176843
24.443563038
23.6966538833
23.8339067684
26.0497983839
26.6497958743
27.1753564433
24.3085577012
22.1842708676
10.5112848093
7.56357194514
7.53041295123
12.7126571496
10.4769958146
6.85623398397
6.99693725956
7.20906204784
8.698389543
7.15405639706
13.1485381537
13.7023733939
13.1798820709
11.0271014752
9.22051388464
9.29310081717
10.9530227893
10.8556609913
10.450547811
10.6706093135
11.2236058671
12.0509497579
12.8547233423
14.23345213
15.4350643411
15.4745120317
17.6738361646
16.6084813799
18.8017069144
17.6365339429
19.2022808249
17.3047012987
16.498151745
15.9944434942
15.9241057547
16.1133354634
16.4035225629
16.7191298497
16.9987676477
17.2494937084
17.5078164678
17.7819316079
18.04951644
18.2761030734
18.4288148287
18.4926993233
18.4772504891
18.4057901844
18.293871888
18.1342749447
17.8970745944
17.5356369551
17.0009794478
16.2779698788
15.4189945613
14.5259515194
13.6636939093
12.7785408174
11.8068627628
11.0331385591
10.9907389556
11.7284947473
12.708412847
13.5469343937
14.1439969919
16.7592007819
24.4105567057
26.1517243988
26.2877057775
27.0256942796
28.1158179987
27.7486566204
26.6729461381
26.3715342658
27.2318377849
28.2960644579
28.0566803013
27.3905423065
26.3516211509
24.9753951445
9.74864661335
7.80478045668
8.71075259736
12.7180354935
8.05879438097
7.86192558695
7.61352325618
7.86184115239
11.4116832153
9.9680661546
13.977175436
13.9125076889
13.1720354737
10.0875436202
9.14336824847
10.9563316817
11.2166795307
10.5290105119
10.3991271735
10.8491628726
11.3520947715
12.1211801238
12.7779030582
14.4156798466
16.7450844055
15.3396295218
17.5847477568
18.729473044
19.0521662481
19.4086886549
17.9612733119
17.8010740065
16.0348677263
15.8503389889
16.0668289111
16.2989845826
16.5673673223
16.8724284069
17.1761834145
17.4666881078
17.75418151
18.0401599973
18.3091151726
18.534013295
18.6880239149
18.7633782171
18.7781361283
18.7572044121
18.710376231
18.6247938029
18.4653446518
18.1791164802
17.7201024098
17.0947549383
16.3736745104
15.6221023924
14.7714892899
13.6066814973
12.238768018
11.4941947954
12.0669734397
13.5252672742
14.8763550655
15.8441126428
16.4444106643
16.1606081259
17.0022772824
27.9640084635
30.8406694237
31.99324853
31.9145121095
30.4796415695
29.4560485445
29.5589872977
30.5030792768
30.6715843467
30.3104634083
29.9445106036
30.2389495443
30.3998683133
9.46681425173
8.48859655115
12.3353502395
12.7053057541
7.87304975776
8.55933168925
8.20718661873
8.85910239262
10.674190651
13.6669002663
14.7030583809
14.0846809301
13.2951772093
9.88475912784
9.24198080684
11.5367437812
11.2461520637
10.439986936
10.4159521896
10.9997947206
11.7880848463
12.4666524067
12.9724240133
13.9889614629
16.8970475645
18.0340079959
16.9397536377
18.889620167
17.3427289878
19.4528075641
19.5036857932
17.6601279735
15.9262940201
15.9434167111
16.2430327644
16.4947895578
16.7527718893
17.0455559752
17.3571776237
17.6851140216
18.0139673326
18.3213993423
18.5968104547
18.8236251219
18.9819594302
19.072758178
19.1223959896
19.157046548
19.1815924388
19.1784058383
19.1088222501
18.9172727045
18.5660634727
18.0814681441
17.5265107615
16.8565239037
15.7378343283
13.9648029101
12.4690260685
12.3311901146
13.9513997756
16.1467365183
17.7630881745
18.7841208713
19.1527988254
18.7161111224
17.780382089
19.3014920481
32.5456276292
37.7840892502
36.5592175627
34.1641004088
33.1614821588
33.3325379272
33.7931378374
33.8766234244
34.0235724555
34.4480647376
35.002279005
35.6481647089
9.58393119168
9.24495546127
13.9099359579
13.210474728
11.0505248902
9.70438613962
8.99858232335
10.3695673251
9.89141933127
14.6012992471
15.2369269426
14.3143724801
13.2063973473
10.3213218889
10.00675254
12.0352579449
11.1838939021
10.4639956776
10.5270843028
11.0417388448
11.9708012635
12.9165071127
14.7559708939
14.1373364198
16.313060116
18.4265197838
16.6669363849
19.2002084625
19.7666116556
18.2212163284
18.2034850662
16.4729234383
16.2414261562
16.2691891566
16.4718662206
16.7173488702
16.9698379988
17.2522352484
17.5510648655
17.8942824715
18.2752345029
18.6287769846
18.9175052401
19.1453653035
19.3112612205
19.4233472084
19.5125846392
19.6050362967
19.702584652
19.7852902053
19.8130688565
19.7366367376
19.5361094445
19.2406300895
18.8431919117
18.020059951
16.174434782
13.9918155815
13.0288442691
14.0407948534
16.9763494426
19.7214576274
21.5135334924
22.7397350151
23.0789517618
22.4009882838
21.0716981361
19.3724446782
28.7750061627
38.9624954755
41.8220016412
39.1366964382
38.1016306645
38.0202534438
38.1141814675
38.0953324587
38.843086127
39.5640207387
39.4938270984
39.6997823485
10.0268586434
9.81067771923
13.5347692736
13.5505221833
13.5052943923
10.6750113207
9.92454733049
13.4055933093
10.0482723436
15.4428947432
15.639928978
14.5582671055
13.1338594738
10.7906659805
13.040970239
13.1251961783
11.2636492337
10.6249582433
10.7692051857
11.1963136108
11.9362047448
12.8734182584
16.2307073128
17.1974918403
15.6269035949
18.523213516
19.3158652154
18.6573443745
19.7381165588
19.7947094886
18.6959972911
16.4419399248
16.4309521899
16.5918213193
16.7514423949
16.9626137262
17.1920089875
17.4879951691
17.8035732079
18.129130533
18.5258147613
18.9367687799
19.2682864923
19.5059541357
19.6794496644
19.8175636589
19.951091269
20.1003818682
20.2646114882
20.424793287
20.5475562861
20.6076432248
20.6104484516
20.5406093317
20.1883342396
18.7471102533
16.0018526775
14.1142352543
14.4491530036
17.2889652884
21.3600099893
24.513583592
26.4109264103
28.0200161852
27.779164713
26.2466028259
24.263158742
21.8223049237
25.1574937209
36.3066354049
43.553335924
44.9731739348
43.0899547787
42.8021820389
42.5331249751
42.9649973741
44.1425389655
44.8175224606
44.8499672186
45.0812310433
10.5284279668
10.402317805
10.0959152405
13.7857680965
13.9172630664
11.2669794156
10.7718367572
14.2688423078
10.5267560676
16.2860323238
15.9872738318
14.8116116329
13.1859266341
10.9919220799
14.2299098035
13.5266327225
11.5479828496
10.9468066963
11.0891859876
11.5246351308
12.0275740544
12.7823877129
16.8209951195
18.2259402985
15.9089580507
18.6234354838
19.8497731888
17.8087527696
19.3575257048
19.1568206204
16.923725995
16.7970842554
16.8692385016
16.952931117
17.0536465893
17.2658543684
17.4788464643
17.7112921633
18.0509680763
18.4200904191
18.8148711536
19.2474642933
19.6274013958
19.8985842065
20.0918313995
20.2612253028
20.4403575926
20.6373538555
20.8531024743
21.0699567441
21.2606153431
21.4742532562
21.7393246537
21.9144960117
21.2894441049
18.4970404695
15.5397000651
15.8121511855
18.8461013144
23.3934506993
27.0481316206
27.5206549312
25.1916937653
22.1888271894
18.0751414197
15.8636030201
16.1196249332
16.6086160174
15.7680742462
16.7714171109
42.2325641753
46.016448904
46.9246745702
44.9165581935
43.5139195901
46.651022668
49.443701414
50.3263810179
51.4532833961
52.1268388175
11.2018521741
11.2700423216
14.3748750188
14.3103119851
14.2255286195
11.7511862943
11.732943549
14.9552614103
11.4162231312
16.9891188702
16.3005608637
15.0748997675
13.3036988461
11.2954195777
14.4289189873
13.5371935702
11.8365169505
11.3137548042
11.4201177514
11.8034913155
12.2712560181
12.8556936191
16.0446732639
19.0193518165
19.1046439376
17.7807411166
20.0470273874
20.6695253068
17.5878039172
16.9301829318
16.7991466856
16.9920474334
17.1627153025
17.2830409743
17.4207575958
17.5754031505
17.7800648298
18.0286617506
18.3074809184
18.7034326754
19.144692514
19.5938671746
19.9999152425
20.3097163397
20.5457279045
20.7565964722
20.9790098965
21.2258322939
21.4706151544
21.6727183432
21.8754952896
22.2420028527
22.8012679086
23.1226498598
21.4696671295
17.3909176672
16.5985193071
17.9546871987
20.702245653
21.5125746826
13.6272778883
0.0552809075535
0.000157096272128
2.71930673633e-09
2.12704979715e-09
5.16398778376e-09
3.48093604734e-08
1.63045101026e-07
6.02289417061e-07
3.82745512252e-06
2.99681192053e-06
0.00025998972747
0.147977596536
14.8749060303
46.237553081
48.3511062194
51.5883269373
56.6726888174
59.3313278856
59.6927432673
11.8131434963
11.9965080027
15.9197149115
14.8077390031
14.0981483762
12.258509703
12.6858198989
15.4774633332
15.4656812474
17.8335398384
16.6488596731
15.4106542978
13.4743411586
11.7492794985
14.6353190319
13.5013260331
12.1341230274
11.6930262286
11.7394233998
12.0516558162
12.5045078437
13.1429405296
15.3625644034
19.2638010539
20.5082461409
17.1891066658
19.5989141427
20.607164379
19.9575285097
17.5382137585
16.9238200492
17.2007851455
17.4914400671
17.692971814
17.7342536093
17.9040476141
18.0809546433
18.3416777754
18.6291558173
19.0069574984
19.4865350158
19.9784890348
20.3949071675
20.7191426719
21.0142202115
21.3401737173
21.6595449164
21.9263086457
22.0675178937
22.173233762
22.3751510592
22.7847184199
23.6182227616
23.7701613018
19.484552375
15.32535384
10.2292237186
0.122420204001
0.00354019412813
5.15387370448e-05
4.18741347318e-08
6.98710066631e-11
4.92523932578e-12
0
0
0
0
0
0
0
0
6.850167976e-16
2.31041984354e-13
3.45589562318e-11
2.00499996858e-08
2.80049289526e-05
1.51653847795
58.3477217972
55.2911770595
63.9540092948
12.2992830328
12.5070210228
18.154607187
15.1495916751
13.6602388766
12.7156599965
13.3460325148
15.3201737026
17.0324564862
18.8110755899
17.1401061578
15.8628127064
13.8754832105
12.5194250382
15.0517345227
13.6316323671
12.525753495
12.131200035
12.0982671498
12.3336039146
12.7225131757
13.3225894426
15.0639156837
19.1212756147
21.4830116597
20.5153803148
18.9495590046
19.9295394344
19.4743823193
17.1448202443
17.3839611559
17.7117815489
18.0748362265
18.1573824963
18.2104889684
18.2473223867
18.451054854
18.6649716096
18.9726368799
19.3540090281
19.8276600006
20.3644217902
20.874794853
21.2238861418
21.5678597188
22.0137375994
22.4550598947
22.7190384671
22.7544935359
22.763620749
22.8607765681
23.0449487196
23.2920905765
22.4400478105
15.347843557
0.0437672873408
1.43537645834e-05
5.80406958072e-07
7.91367415158e-09
2.17014452319e-11
0
0
0
0
0
0
0
0
0
0
0
0
0
8.82644065463e-15
8.77098833377e-14
1.92279068274e-12
9.32334613656e-11
5.177468046e-07
59.7495284821
0.0083073262168
12.6681616236
12.8624791075
20.2823233805
15.3806712947
13.535347757
13.1508306034
14.1317290879
14.3390626862
17.9808556157
19.4987603918
17.6235915536
16.3311498731
14.4924404665
14.5676568675
15.6332527118
14.014510649
13.1249674976
12.784253804
12.5657296215
12.7051629466
12.9949896243
13.5264018247
14.9872013368
18.9845379593
21.8680385138
22.186529792
18.2009438398
18.4137500956
17.5828262454
17.2447838852
17.622666772
18.22808614
18.5630613929
18.63837724
18.6898615398
18.8766092323
18.8668789034
19.0560270057
19.3361849463
19.6919808208
20.2468217546
20.8383929679
21.3726167635
21.6738550465
22.0688793864
23.6125220927
25.7957272688
26.4304165291
24.8854742928
24.5010754623
24.399388988
24.103106908
23.2325639589
20.5863846339
0.349064585154
1.56595861182e-12
1.58242057669e-09
2.58207429345e-11
0
0
0
0
0
0
0
0
0
0
0
0
0
0
0
0
0
0
1.36365740894e-13
9.23446273852e-13
1.70291149104e-10
79.6230531555
13.0126108022
13.1758309806
20.0023780022
14.4932120507
13.5585042376
13.5174855673
15.0258123458
14.1009432244
18.762752856
20.1553604447
18.0972263692
16.7756294874
14.9507149779
16.9757461217
16.4780047359
14.6067599455
13.8253993065
13.8803596205
13.2606700372
13.249454025
13.3703969293
13.7534117282
15.0669936073
18.8308198705
21.7140646059
23.3050335678
21.5153581773
20.1716131381
19.0737033496
17.5579276085
17.9407112525
18.9873495528
18.9085809667
19.088486131
19.5723875262
19.3943385419
19.3886524395
19.5614966063
19.8376660805
20.172915334
20.5984172804
21.2395335334
21.9537478861
22.9595023926
24.4009913008
26.5112540666
28.1218931454
27.9877972239
27.9646336339
28.8660801989
30.0844301812
31.2433093822
29.8006197931
0.961421344329
0.00012636176764
1.71623500455e-06
0
0
0
0
0
0
0
0
0
0
0
0
0
0
0
0
0
0
0
0
0
0
4.19595186405e-13
0.0305403876202
13.4517389166
13.5992561179
19.5023513824
13.8961108636
13.74580913
13.8034970901
15.7712617109
14.4297987826
19.4006144208
20.79809919
18.5774015694
17.2405037544
15.3438280625
17.6186223872
17.2510743423
15.2748704522
14.5082128986
14.7091768087
14.1086289813
14.0232534846
13.9672768501
13.9980282501
15.3163478491
18.7982312585
21.413928323
23.6544266522
22.7554508382
20.4747789024
17.8464694673
18.0935369469
18.5552745831
19.5526420891
20.0060390693
20.2664580649
20.3873472979
19.9905106596
19.9735435952
20.1682963637
20.4340514724
20.7834668473
21.1860132656
21.8989043936
23.0871923657
25.0848071501
26.4150756093
26.6824038977
27.5466258322
28.3603430433
31.4234783029
35.0256488017
40.0750247201
41.6723628629
1.27433817559
0.000219753084873
4.50724893787e-07
1.0912916696e-08
3.66309570775e-11
0
0
0
0
0
0
0
0
0
0
0
0
0
0
0
0
0
0
0
0
0
7.05143822947e-14
9.3296968413e-14
14.1518331533
14.3026930739
18.9662049655
14.0095434714
14.2461031915
14.1995150832
15.5505643575
15.1126637944
19.8038612128
21.3988238914
19.0982024532
17.7649802917
15.8810440488
18.2197911962
17.9640962734
16.0692652981
15.2736018427
15.5279805822
14.9226697593
14.9492993902
14.8797220385
14.41856689
15.7749476477
18.9357922913
21.2679652681
23.7509221305
23.234840045
20.9355637774
18.1567631159
18.2558474972
19.3075946087
19.4535627186
19.7085776743
20.2631588356
21.3358493986
20.9909960295
20.8772513781
20.8444717314
21.0510608168
21.4927629475
22.0152381895
22.8251106702
25.2001380693
27.4585125522
27.4992911639
27.6214582161
29.1083749263
33.6713311195
39.7337208058
44.7475361201
45.1537775388
0.0455490755949
1.88492726298e-06
6.18005788603e-10
3.87765489572e-12
7.85969222743e-12
1.20695544029e-12
0
0
0
0
0
0
0
0
0
0
0
0
0
0
0
0
0
0
0
0
0
5.21192494215e-15
2.3665819698e-14
15.246367389
15.339489493
19.0381005779
14.8618271242
15.4070881325
14.9805291553
15.6373840655
16.5103641806
19.6371134772
21.7985176561
19.6923309447
18.3722798063
16.5407534986
18.9068527727
18.7095918111
17.0501324171
16.2567101541
16.5237905267
15.7392692474
15.9864268421
16.1546604398
15.1120078557
16.2682740667
19.2363951355
21.3012893351
23.5517245183
23.4310802365
21.3874354545
20.5870881241
19.1550181751
19.7635259785
20.5653926623
21.5971905869
20.7688976841
21.25474041
22.0745715198
21.8284144386
21.9551698655
21.9867340602
22.254515572
22.9045876501
25.0876905959
28.5433441153
29.3957486602
28.8759561306
30.2930862362
36.0799309054
44.2489596858
50.0319390681
41.5245438418
0.000690093082587
6.44295988487e-09
4.40848554658e-11
0
0
0
0
0
0
0
0
0
0
0
0
0
0
0
0
0
0
0
0
0
0
0
0
0
0
0
16.8233569468
16.6208625903
19.6379006645
16.8110684914
17.4513165153
16.1884743754
16.456232263
18.5892619267
19.6624681785
22.3144301202
20.4226332392
19.0761605588
17.303172234
19.6295396274
19.4493466951
18.1470523278
17.800680875
17.8653272247
16.6428863367
17.1455868363
17.7726640148
16.1823274113
16.5951282835
19.603511135
21.5145628734
23.3380366551
23.5935249551
21.3923979459
21.7725136142
20.8286180352
20.9465771264
19.9067254792
20.8222431013
22.2331314938
22.1713352756
22.5766375544
22.7888105817
22.8848265508
23.1577067283
23.4052079193
24.8756507629
29.000356787
31.5848326874
31.6408027037
32.2559683672
36.883913694
45.6816095353
51.3746197365
26.8096110219
6.15851022512e-06
1.0766375728e-08
4.92978617102e-11
0
0
0
0
0
0
0
0
0
0
0
0
0
0
0
0
0
0
0
0
0
0
0
0
0
0
0
0
18.5219677406
17.8172771858
20.3302188852
19.4972249174
19.1563424901
17.6330900598
17.3796545953
19.6901942924
18.4756645846
22.6831895551
21.2741341254
19.8695411894
18.1611149331
20.3692842114
20.1347162515
19.0480896832
20.0925265522
19.5053153864
17.680331342
18.4762704563
19.1444100038
17.5997904891
16.5468353503
19.5207237396
21.6456975365
23.154831919
23.6179622924
21.4063249544
22.0523217447
22.1326361014
22.1920733723
20.6110768917
21.1714118442
21.8424239631
23.096686829
23.7941734766
24.0084576302
24.0200506989
24.2069276816
25.1797414975
28.991357883
33.1705012755
34.8292753786
35.4766252458
38.1542790566
44.4362751246
46.9134061021
6.48635146388
1.65823222578e-05
2.40064100219e-08
8.40750791367e-11
0
0
0
0
0
0
0
0
0
0
0
0
0
0
0
0
0
0
0
0
0
0
0
0
0
0
0
0
0
19.3003675328
18.6592009595
20.7478133979
20.4843745631
20.1635440442
19.0291160324
18.5279665163
21.0608087801
19.4485986505
23.1861310108
22.1330111653
20.7148870323
19.1079380171
21.146160645
20.8459790902
19.8083914022
21.0112460329
20.5479964348
18.7118398513
19.8230837629
19.8042830698
18.2934361289
17.6538399495
17.8294788888
21.1207810374
22.6171572953
23.3678794067
21.3508751643
22.062213186
22.5995312991
23.1643033792
22.6574892001
21.163198516
21.7569494801
23.2419270106
24.6192431493
25.3445947437
25.6704652369
25.8573920544
28.94968212
33.8596975582
37.1803560015
38.403468701
39.8030971039
43.3190035447
41.8426156005
14.2061927929
8.76019969784e-05
7.89119045483e-08
2.24745189498e-10
0
0
0
0
0
0
0
0
0
0
0
0
0
0
0
0
0
0
0
0
0
0
0
0
0
0
0
0
0
0
19.3050887183
19.2189750739
21.0193980915
20.636954863
20.8188015134
20.1300423577
19.5441955493
22.4059158223
21.1716117796
23.858458471
23.0519420745
21.5970590343
20.1366607263
21.9744743623
21.6355977582
20.7235762345
21.7596262326
21.4626960835
19.8295904357
20.8083823086
19.1979951394
18.9736848347
18.6640875857
18.9906261047
19.8845602589
20.7526206402
22.4879026408
21.2011886389
21.4511327281
22.5633187375
23.5613584912
24.011480284
22.7654476264
22.4832091704
23.21728082
24.5245889506
26.0789703459
27.384318455
28.8439486638
33.6508600011
38.2363578259
40.6879729467
41.2308654872
41.7535491083
37.6793009192
25.5394701725
0.000594155448538
2.7410489687e-07
6.14020610338e-10
0
0
0
0
0
0
0
0
0
0
0
0
0
0
0
0
0
0
0
0
0
0
0
0
0
0
0
0
0
0
0
19.5314752019
19.6329122241
21.2895640251
19.4978316688
21.0859783486
20.7299831184
20.2366742593
22.9611695995
21.9761828935
24.5776681924
24.0297341322
22.4933623818
21.2590787666
22.8420441081
22.4754210895
21.782009313
22.5702675242
22.4900476777
21.0675808999
22.1798132884
20.5280684364
20.7095524119
19.8986369418
20.2403623706
21.8516888687
22.4400711748
22.1053546496
21.0005177714
20.8537330858
22.4994634816
23.5537072739
24.203785614
24.3169590415
23.5499125482
24.8278619833
25.2533176663
26.6925831509
29.042866278
32.6758798614
38.1673749458
41.9672443245
43.2343654445
41.3391779194
35.7662853316
30.1186110207
0.0224840784188
2.30008603926e-06
5.23625841798e-09
0
0
0
0
0
0
0
0
0
0
0
0
0
0
0
0
0
0
0
0
0
0
0
0
0
0
0
0
0
0
0
0
20.2524803288
20.3258090519
21.5574165304
19.9072959957
21.3136608174
21.0470459285
20.7367989695
23.103241856
22.5603630386
25.1087999267
25.0129609359
23.3512337048
22.4692725914
23.7088185674
23.2917202663
22.8175508365
23.3447234494
23.6122709012
22.3560996625
23.5424559076
22.3139682235
22.8778619369
22.5354332374
21.0632491745
22.4363752323
23.4843093568
23.5447307106
20.8763145173
20.1624985171
22.4027554115
23.6979600191
23.6360616527
23.8806205421
23.8322226828
24.9486936095
25.7447134979
27.4615370953
30.8047465361
36.6031422393
42.493968692
45.2083224736
44.1061493556
36.2951058825
33.3304130098
17.7774807059
2.61521451045e-05
3.64883071754e-08
1.4796089683e-10
0
0
0
0
0
0
0
0
0
0
0
0
0
0
0
0
0
0
0
0
0
0
0
0
0
0
0
0
0
0
0
0
21.1673449136
22.3783650082
21.9670129805
20.9296787989
21.8451985961
21.4269228792
21.2253910317
23.2273642219
23.1094133731
25.2774928327
25.9907190309
24.1386519368
23.5505203641
24.4019682764
24.0845551201
23.5880042077
23.4983125638
24.6464379503
23.7444732629
24.726818107
24.3619349279
24.1469799302
23.8937106006
23.431298285
22.5242095881
23.3754174274
24.5107898629
20.1595263903
19.663835971
21.606110309
23.726056156
24.3163192292
24.8783583881
23.8418579688
24.735805405
25.9774654261
27.8731658882
32.4412289168
40.3731995561
46.4941151318
47.8608698554
41.0025429602
36.6369467431
31.6294294158
0.00197261493072
2.47321055955e-07
6.31222822085e-10
0
0
0
0
0
0
0
0
0
0
0
0
0
0
0
0
0
0
0
0
0
0
0
0
0
0
0
0
0
0
0
0
0
21.861614287
23.1042838107
22.6759315957
21.8541480178
22.5606927478
22.0092005824
21.7901995753
23.4465834878
23.6566898735
25.1722665709
26.8771734056
24.9279667651
24.1909897427
24.9805602843
24.98375822
24.2966579223
23.6272397464
25.3776249462
25.2198005047
25.7580065521
25.6780553543
25.7455085056
24.1946607039
24.1461134223
23.6026479006
25.1118952805
25.8725616314
22.4760360784
19.2644271308
20.5419969781
23.0834442491
24.6018091724
24.9888859274
24.4770180163
24.3467083115
25.9305895055
27.8164718091
33.7205707425
43.8510504876
50.4431772126
47.6836890752
36.8171224017
35.9682775081
19.8955632365
8.47963292255e-06
7.29236317091e-09
2.45064816515e-11
0
0
0
0
0
0
0
0
0
0
0
0
0
0
0
0