/*--------------------------------*- C++ -*----------------------------------*\
| =========                 |                                                 |
| \\      /  F ield         | OpenFOAM: The Open Source CFD Toolbox           |
|  \\    /   O peration     | Version:  v1806                                 |
|   \\  /    A nd           | Web:      www.OpenFOAM.com                      |
|    \\/     M anipulation  |                                                 |
\*---------------------------------------------------------------------------*/
FoamFile
{
    version     2.0;
    format      ascii;
    class       volScalarField;
    location    "128";
    object      p;
}
// * * * * * * * * * * * * * * * * * * * * * * * * * * * * * * * * * * * * * //

dimensions      [0 2 -2 0 0 0 0];


internalField   nonuniform List<scalar> 
6400
(
0.147573900278
0.147575843224
0.147581299791
0.14759158784
0.147606022129
0.147624301753
0.147646580919
0.147674009398
0.147706375975
0.147743297153
0.147789892492
0.147848764502
0.147916182228
0.147992368202
0.148079304495
0.14817908067
0.148291940086
0.148417015832
0.148553297661
0.14869661168
0.148840445862
0.148984016843
0.149132086143
0.149290729044
0.149464580663
0.149653543593
0.149854071171
0.150063913701
0.150283369202
0.150513753948
0.150756300324
0.151009951267
0.151268846767
0.151527410618
0.151784490196
0.152035791138
0.152279493968
0.152525447055
0.152773203588
0.153009452143
0.153235740605
0.153470464392
0.153723643175
0.153986724781
0.154251993848
0.15451531374
0.154773401161
0.155025227385
0.155270156078
0.155507877488
0.155739376507
0.155959510836
0.156163204691
0.156342145577
0.156498452921
0.156645269106
0.15677903195
0.156886547567
0.15696524785
0.157023103761
0.157064020355
0.157088534987
0.157099346508
0.15709593443
0.157074397941
0.157021475817
0.156932136711
0.156821013681
0.156706963718
0.156597496425
0.156492070404
0.156386839696
0.156279176109
0.156175379699
0.156075350392
0.15598319809
0.155902163477
0.155846851111
0.155810113798
0.155794434646
0.147570921456
0.147572929675
0.147577687489
0.147587753049
0.147603654245
0.147623442693
0.147646282015
0.147672220213
0.147702846207
0.147739899143
0.147786188998
0.147843669159
0.147911344525
0.147988671946
0.148076111622
0.148174594696
0.148286825679
0.148412690615
0.148550946469
0.148696056473
0.148838267933
0.148979418779
0.149126379753
0.149284114577
0.149458057024
0.149648006351
0.149848507453
0.15005877482
0.150279330121
0.150510636241
0.15075280991
0.151006622926
0.151267017335
0.151525629525
0.151783371705
0.152035090671
0.152278077695
0.152524543849
0.152773220709
0.153008064117
0.153227687493
0.153459428673
0.153719793314
0.153987301275
0.154254321801
0.154519465007
0.154778915198
0.155032323388
0.155277931297
0.155512793322
0.155738402527
0.155958780985
0.156174615722
0.156356079261
0.156513538451
0.156666249583
0.15679608891
0.15689749272
0.156975716483
0.157033614901
0.157073197647
0.157099423665
0.157111545685
0.157108814754
0.157088399964
0.157036962208
0.156946609101
0.15683309524
0.156716390271
0.156603989016
0.156495610018
0.156386984385
0.15627469595
0.15616481376
0.156062026703
0.155969063357
0.155891152449
0.155835120843
0.155798142946
0.155785464174
0.147562805053
0.147566246357
0.147570269265
0.147579453741
0.14759493102
0.147617546283
0.147643137594
0.147668402743
0.147697110039
0.147733120145
0.147778773346
0.14783555425
0.147903320651
0.147981329086
0.148069049438
0.148164184494
0.148274648301
0.148408212972
0.148550731985
0.148694922527
0.148832728264
0.148966878876
0.149111411518
0.149271995923
0.149446346507
0.149635072896
0.149836876943
0.150049277715
0.150271511833
0.150504279294
0.150747199312
0.151001794347
0.151265477005
0.151523074521
0.151778510105
0.152034436561
0.152276357919
0.152519143164
0.15276825523
0.153005209523
0.153232832201
0.153469205877
0.153723359397
0.153987155211
0.154253370251
0.154518428885
0.154779476673
0.15503484559
0.155282881996
0.155522109019
0.155752384699
0.155972986746
0.15617948397
0.156365300252
0.156536710946
0.156690704835
0.156816831455
0.156917509334
0.156995980174
0.157054493675
0.157095914519
0.157123274838
0.157135616252
0.157136470944
0.157118868782
0.157067069532
0.156977390367
0.156861989879
0.156738613146
0.156618375121
0.156501756976
0.156384358702
0.156265933848
0.156151404889
0.1560436636
0.155947692661
0.155869700766
0.155812410421
0.155775732826
0.155762004021
0.147552036398
0.147555394544
0.14755823546
0.147566641486
0.147580244916
0.147602751486
0.147637027935
0.147662132336
0.147688549333
0.147722701654
0.147767438783
0.14782383784
0.147891884169
0.147969418889
0.148057813113
0.148160349044
0.148277700732
0.148409178112
0.148544602223
0.148675996545
0.14880739327
0.148944694419
0.149091259619
0.149251329445
0.149426458297
0.149616705982
0.149820682407
0.150035491948
0.150260296115
0.150494778752
0.150740430451
0.15099671004
0.151261540577
0.151526103321
0.151777281647
0.152026504326
0.152274696641
0.152514719393
0.152753629262
0.152991629363
0.15322823442
0.153470972007
0.153725352472
0.153988229756
0.154254574176
0.154520665429
0.154783613536
0.155041362709
0.155292200441
0.155534693064
0.155767819049
0.155990059778
0.156198601186
0.156390532879
0.156565727144
0.156719545338
0.156846921728
0.156948892775
0.157028525189
0.157088547101
0.157131615784
0.157159761289
0.157174823779
0.157182017818
0.157169286346
0.15712076547
0.157029143229
0.156906831641
0.156772378588
0.156639748392
0.15651242468
0.15638690951
0.156260944732
0.156134060611
0.156013296104
0.155912138237
0.155833764343
0.155769501581
0.155724205627
0.155705283579
0.147535472015
0.147535524474
0.147539073014
0.147547703372
0.147562823822
0.147583874867
0.147614363906
0.147643006717
0.147671766203
0.147706863144
0.147751092691
0.14780741319
0.14787643128
0.147960484807
0.148058072505
0.148163007108
0.14827574779
0.148395111743
0.148518384551
0.14864618087
0.148778924454
0.148916667302
0.149063775265
0.1492248243
0.149401145689
0.149593350709
0.149799375761
0.150017366467
0.150245140424
0.15048337277
0.150731239646
0.150992838301
0.151264997888
0.151523783259
0.151774383246
0.152019938638
0.152258688582
0.152497254471
0.152737265346
0.152978538902
0.153221388228
0.153469454512
0.153725907751
0.153989579722
0.154257078256
0.154524992544
0.154790405995
0.155051066377
0.155305207282
0.155551369229
0.155788189132
0.156013958802
0.156226464647
0.156423391263
0.156602229973
0.156758268871
0.156888044063
0.156992626259
0.157075043901
0.157138087621
0.157184203913
0.157215548125
0.157235295822
0.157249637927
0.157238947266
0.157193857314
0.157103238615
0.156973793142
0.156824263144
0.156674261334
0.156532439404
0.156393814675
0.156248996902
0.156099688205
0.155964646638
0.155854910422
0.155763873464
0.155678985903
0.155623781117
0.1556032661
0.147503939576
0.147503231564
0.147510292668
0.147518913988
0.147535492065
0.147558586677
0.147586036649
0.147615676363
0.147647616381
0.147684591619
0.147727730098
0.14778528816
0.147863970273
0.147956654886
0.148054702579
0.14815496744
0.148258522027
0.148368808326
0.148488340425
0.148615004468
0.148744960829
0.148881643174
0.149029716261
0.149192504921
0.149370728576
0.149564024253
0.14977368684
0.149994669804
0.150227160399
0.150469006381
0.15072319172
0.150988230427
0.151258680736
0.15152508705
0.151767813322
0.152001449437
0.152236746532
0.15247603872
0.152718675927
0.152963945348
0.153212113936
0.153465190477
0.153724965983
0.153990921647
0.154260678571
0.154531239747
0.154799755642
0.155063907076
0.155321940779
0.155572427975
0.155813924124
0.156044684491
0.15626254792
0.15646482019
0.156647922414
0.156807550833
0.156941428708
0.157050751568
0.157138160706
0.157206243325
0.157257396509
0.157295165659
0.157324871121
0.157342543538
0.157336839151
0.157293382328
0.157201822038
0.157064849977
0.156898000931
0.156726383625
0.156563584557
0.156399160286
0.156222121461
0.156047164634
0.155893699975
0.155765075333
0.155646779098
0.155539457816
0.155473819742
0.155445040401
0.147455379949
0.147458698254
0.147471856657
0.147485096063
0.147498672301
0.147521570416
0.147551145407
0.147581664401
0.147616180623
0.14765531759
0.147702403725
0.147763108284
0.14785003954
0.147943580184
0.148038256648
0.148130718917
0.148227700124
0.1483368027
0.148456360274
0.148577610914
0.148704117984
0.148841052246
0.148989974479
0.149153489328
0.14933353459
0.149532257492
0.149742354404
0.149968203623
0.150205604683
0.150456507694
0.150716437947
0.150981456271
0.151253370497
0.151510300907
0.151747770702
0.151976393043
0.152210930457
0.152452129876
0.152698028561
0.152947415748
0.153200538636
0.153458618807
0.153722590636
0.153992044469
0.154265137189
0.154539214622
0.154811549298
0.155079881611
0.155342558891
0.155598239946
0.155845474787
0.156082424836
0.156306670937
0.156515013589
0.156703534999
0.156868612259
0.157008846078
0.157125373439
0.157220147951
0.157294988063
0.157353003322
0.157400553309
0.157440328754
0.157462389214
0.157474449892
0.157435572544
0.157337227356
0.157186682822
0.156999063835
0.156799809259
0.15660238845
0.15639646598
0.15618010247
0.155975536198
0.155794015011
0.155631172642
0.155475281725
0.1553461929
0.155269128275
0.155231126669
0.147398673738
0.147405632102
0.147421603346
0.147442218425
0.14745736818
0.147480092055
0.147508923323
0.147540943
0.147578917867
0.147616220788
0.147670180308
0.147742967396
0.147828695332
0.147920476579
0.1480084129
0.148093499185
0.148190302069
0.148302044946
0.148416712618
0.148532908305
0.148656998068
0.148794075301
0.148944192273
0.149110358046
0.149293704985
0.149495101126
0.149710994
0.149935019978
0.150182972535
0.150447144072
0.150706627756
0.150966501826
0.151236642077
0.151485075633
0.151714951307
0.151945588846
0.15218217609
0.152425728136
0.152674952721
0.152928570156
0.153186626932
0.153449906752
0.153718823571
0.153992828766
0.154270289218
0.154548786537
0.154825757728
0.155099100829
0.155367323879
0.155629185784
0.155883222558
0.156127429512
0.156359033466
0.156574463941
0.156769920949
0.156942600883
0.157091718916
0.157217891078
0.157321523433
0.157403274641
0.1574683193
0.157525840428
0.157576440775
0.157615699387
0.157643871747
0.157629400871
0.15752607269
0.157352683509
0.157133657145
0.156893036896
0.15664501499
0.156385672063
0.156125153649
0.155881485409
0.155657684912
0.155445684631
0.155251456798
0.155098651466
0.155009936682
0.154967907097
0.147337020284
0.147346459255
0.147363036537
0.147379715078
0.147400330912
0.147430270239
0.147458289774
0.147491252741
0.14753495666
0.147576734796
0.147628056006
0.147709330975
0.147797880196
0.147885071518
0.147967179117
0.148052064395
0.148148678182
0.14825835671
0.148368645503
0.148482271912
0.148604683601
0.148740431926
0.1488900394
0.149057509162
0.149251084204
0.14945328622
0.149675265089
0.149909910071
0.150158901366
0.15042212222
0.150688770887
0.150957404697
0.151206627276
0.151444872904
0.151676531889
0.15191052446
0.152150138162
0.152396451694
0.152649063457
0.152907044429
0.153170255127
0.153439098025
0.153713643662
0.15399316144
0.154276011335
0.15455989255
0.154842445387
0.155121794689
0.155396616177
0.155665735508
0.155927635786
0.156180104927
0.156420038237
0.156643709528
0.156847742195
0.157030168775
0.157190399384
0.157327588165
0.157439376844
0.157525895198
0.157598836883
0.157674203193
0.157748966527
0.157810752846
0.157848895236
0.157859978825
0.157783472769
0.157576242682
0.157310047604
0.15701050178
0.156693769138
0.156370568561
0.156057346388
0.15576133866
0.155478588236
0.155207770379
0.154972722128
0.154794689938
0.15468988727
0.154644176132
0.147269693823
0.147281233386
0.147300621428
0.147317229661
0.14733880194
0.147369800331
0.147398549406
0.14743160435
0.147473583724
0.14752919775
0.147585252261
0.147666482676
0.147755936503
0.147838625576
0.147915198007
0.148002904787
0.148103949473
0.148208210562
0.148313306945
0.148425017186
0.148547516329
0.148682945289
0.14883241908
0.148998001451
0.14919907737
0.14941126207
0.149626414397
0.149872562699
0.150126970555
0.15039621368
0.15066434452
0.150927779233
0.151172034855
0.151401218469
0.151633753766
0.151871382301
0.152114476695
0.152363966022
0.152620087327
0.152882507482
0.153151141337
0.153426051456
0.153706951031
0.153992902689
0.154282189981
0.154572546337
0.154861795546
0.155148325845
0.155430966321
0.155708525514
0.155979360908
0.15624103162
0.156490187025
0.156723166967
0.156937230383
0.157131104827
0.157303534107
0.157450178909
0.157563990476
0.157651492528
0.157742044279
0.157855559635
0.157972621834
0.15806553631
0.158116135174
0.158119036726
0.158055741463
0.15787788667
0.157539698027
0.157153688302
0.15675050061
0.156353226911
0.155974577645
0.15561065519
0.155252230807
0.154911021989
0.154623870838
0.154410913653
0.154277491761
0.154217895223
0.147193907352
0.147205361839
0.147226052337
0.147247467996
0.147275664654
0.147301017866
0.147329599198
0.147364373875
0.147399562735
0.14746127345
0.147529285236
0.147611101641
0.147700882187
0.147782419369
0.14785791834
0.147945644197
0.148048578258
0.148149400243
0.148250764381
0.148359715667
0.148482338119
0.148619428746
0.148773738294
0.148939130526
0.149132765133
0.14936278236
0.149587595506
0.149832341982
0.150087453191
0.150345787785
0.150624751303
0.150887704789
0.151124906883
0.151352110872
0.15158684821
0.151828005835
0.152074829954
0.152327947603
0.152587835806
0.152854726094
0.153128968543
0.153410470779
0.153698508942
0.153991860835
0.154288696412
0.154586771174
0.154884083905
0.155179239682
0.155471133196
0.155758448274
0.156039306735
0.156310994282
0.156570024143
0.15681306092
0.15703811476
0.157244112145
0.157426733152
0.157572583851
0.157676330535
0.157772120681
0.157906912348
0.158092177753
0.158276074747
0.158413492702
0.15847469519
0.158447584011
0.158339786832
0.158166218559
0.157831394277
0.157334965265
0.156819206914
0.15633217053
0.155873681267
0.155427503169
0.154974658413
0.154535749022
0.154170511119
0.153901491756
0.153725292941
0.153642516141
0.147107806158
0.147116837601
0.147131950957
0.147159807019
0.147197618126
0.147221565721
0.147250255854
0.147289135302
0.147322974373
0.147381081668
0.147458270154
0.147542607435
0.147631675816
0.147713564645
0.147794636542
0.147884173754
0.14798511187
0.14808241497
0.148181365635
0.148287733387
0.148407424493
0.148542220202
0.148706233723
0.148885061471
0.149072292066
0.149302342931
0.149536523394
0.149775093488
0.15004560063
0.150310592395
0.150577015531
0.150827526167
0.151061832182
0.151296093234
0.151534855114
0.151779759117
0.152030636162
0.152287898943
0.15255205425
0.152823527922
0.153103364769
0.153391892649
0.153687947839
0.153989749799
0.154295342124
0.154602585287
0.15490964883
0.155215241873
0.155518158329
0.1558167759
0.156108780917
0.1563910687
0.156660222923
0.156913525915
0.157149645584
0.157365758952
0.157546871039
0.157671463758
0.157764067213
0.157894890031
0.158122165366
0.158426115485
0.158708523407
0.15890951108
0.158980475665
0.158910276771
0.158716151077
0.158453469206
0.158089540149
0.157531364739
0.156900183415
0.156304292295
0.155752551225
0.155218437449
0.154643043862
0.15404599147
0.153560595303
0.153218765669
0.15300115282
0.152903842627
0.147011059936
0.14701755798
0.147024423748
0.14705621808
0.147093834565
0.147123792286
0.14715555949
0.147199099271
0.147238642371
0.147295055611
0.147376127955
0.147461769176
0.147549228373
0.147628205497
0.147716439565
0.147814589564
0.147912762557
0.148007018183
0.148104506665
0.148209795841
0.14832630019
0.148455227267
0.148617294648
0.148819962465
0.149014157133
0.14922881879
0.149478628393
0.149723984598
0.149981984491
0.150252333626
0.150517548054
0.150761996127
0.150993914391
0.151232965745
0.151476722296
0.15172604895
0.151981227338
0.152242805812
0.152511899645
0.152788725592
0.153074304877
0.153369899516
0.153674626275
0.153986054734
0.15430180942
0.154619925098
0.154938823763
0.155257179083
0.155573407942
0.155885263732
0.156189646052
0.15648287281
0.156761854411
0.157024626716
0.157269809346
0.157486949716
0.157642925812
0.157731673403
0.157823391295
0.158041817285
0.158435611536
0.158920573109
0.159344117173
0.15964945887
0.159733716257
0.159581674835
0.159241851904
0.158799990071
0.158306413845
0.15767668023
0.156960182756
0.156259246558
0.155606605985
0.155013627227
0.154279549795
0.153388747446
0.152720570573
0.152313752591
0.152068424405
0.151981605249
0.146904593525
0.146912171978
0.146924110442
0.146945273257
0.146977800749
0.147011566178
0.147047270348
0.147092930439
0.147142384238
0.147199449132
0.147282968898
0.147369459648
0.147456186916
0.147533558645
0.147621591461
0.14772769238
0.147827517485
0.147921816838
0.148019067782
0.148124296905
0.148239594789
0.14836432975
0.14852135826
0.148734758417
0.148944796887
0.149156388995
0.149411468847
0.149664924429
0.149916461159
0.150184948544
0.15043680006
0.150676346856
0.150917064132
0.151162380617
0.151411568442
0.151665854018
0.151926281913
0.152192644728
0.152466355715
0.15274901398
0.153041291769
0.153344340117
0.153658050982
0.153980018046
0.154307456655
0.15463849466
0.15497183893
0.15530594853
0.155638506578
0.155966233686
0.156284594456
0.156589018898
0.156876845588
0.15714664795
0.157395923643
0.157593207288
0.157691858708
0.157739688398
0.157831046466
0.158276724224
0.158923253593
0.15968403384
0.16029034145
0.160770560623
0.160755336568
0.160388756689
0.159801807325
0.159092077479
0.158388844558
0.157702457507
0.156930673771
0.156159386852
0.155431998197
0.154913225394
0.154003003251
0.15244765673
0.151513257267
0.151124052294
0.150855352646
0.150834429132
0.146785276631
0.146793699963
0.146814613854
0.146826403733
0.146852626822
0.146887462364
0.146926333103
0.146975682908
0.147037474308
0.147094363431
0.147178668201
0.147266048045
0.147353068028
0.147431899857
0.147520565911
0.147629455795
0.147731081466
0.147826980508
0.147925115194
0.14803048254
0.148145603004
0.148269724218
0.148419159521
0.148627405547
0.14886339104
0.149083394326
0.14932459443
0.149598560551
0.149859475072
0.150103717612
0.150345507907
0.150586359364
0.150832506289
0.151083631102
0.151338856325
0.151598829708
0.151864337755
0.152136357307
0.152415544996
0.152703719891
0.153003033454
0.153314396957
0.153637682092
0.153970846877
0.154311290658
0.154657511994
0.155008450562
0.155362279263
0.155715503015
0.156062664468
0.156397286834
0.156713960449
0.157009146972
0.157279977927
0.15752001982
0.15764307932
0.157664331823
0.15771389888
0.157967526661
0.158798641556
0.159711084048
0.160810937477
0.161227483176
0.161334095224
0.16135820399
0.161050844582
0.160373584489
0.159456323588
0.158446932424
0.157453019544
0.156738833122
0.156027312969
0.154939950082
0.155113371403
0.154051471788
0.150962219076
0.149710370859
0.14961578631
0.149226733745
0.149458305887
0.146650572068
0.14665797982
0.146676343969
0.146690142037
0.146713655138
0.146750043324
0.146790336239
0.146838776175
0.146912570436
0.146977650538
0.147061886435
0.147150787511
0.14723935061
0.147322144224
0.147413136328
0.147522543494
0.147625264618
0.147723425083
0.147823116221
0.147929021224
0.148043839464
0.148168620878
0.148313973926
0.148514073983
0.148764852544
0.149000939632
0.149232715563
0.149498685752
0.149770616329
0.150017256006
0.150251843796
0.150491399217
0.150741116578
0.150997934139
0.151259056879
0.151524347727
0.151795381249
0.15207281314
0.152358080887
0.152652462015
0.152958754541
0.15327886328
0.153612560642
0.153957555671
0.154311663582
0.15467508452
0.155048027419
0.155427607078
0.155806707074
0.156177155513
0.156532715814
0.156865495568
0.157167543039
0.157431278894
0.157648649165
0.157613824573
0.157616742655
0.157715815455
0.158443199752
0.159844412984
0.160079793675
0.16044504892
0.160934723236
0.161121971054
0.161013635985
0.160588270632
0.159876273444
0.158998344587
0.158087557167
0.15722236407
0.156448354056
0.155770161774
0.155801958997
0.157469435563
0.157380013486
0.146974465083
0.145695000532
0.147684591124
0.146898050892
0.148037926607
0.146502820097
0.146509166661
0.146527585408
0.146541116416
0.146564215156
0.146600905146
0.146642089284
0.146686887371
0.146761245781
0.146840392184
0.146929491135
0.147021409645
0.147112929165
0.147203311755
0.147296989963
0.147406526613
0.147510297233
0.147611446164
0.147713213616
0.14782017348
0.147935009642
0.148059508701
0.148202130248
0.148393284629
0.148642563694
0.148906410145
0.149145778294
0.149397533307
0.149662013433
0.149906040948
0.150139670697
0.150385160986
0.150640662635
0.150903340963
0.151170780782
0.151442331492
0.151718784576
0.152001980492
0.152293147734
0.152594249464
0.15290776576
0.153236208628
0.153580711576
0.153938859993
0.15430771195
0.154690077483
0.155089243006
0.155500870108
0.155912415314
0.1563133099
0.156699359606
0.157058389131
0.157366835442
0.157584900493
0.157672558591
0.157569043463
0.157558123606
0.157867198443
0.158660755018
0.159372512912
0.160046482868
0.160301458421
0.160551062588
0.160612670012
0.160409909789
0.159950245683
0.159264572249
0.158422495338
0.157508721082
0.156600019878
0.155726628233
0.154956036459
0.154419408808
0.153877828955
0.150511854211
0.14751376407
0.149223852095
0.150013195106
0.141905103539
0.146945505797
0.146344077094
0.146348917004
0.146363073295
0.146377956002
0.146405076851
0.146441618797
0.146485023334
0.146528154773
0.146600833373
0.146688295113
0.146781668992
0.1468760483
0.146968956314
0.147069483261
0.147169361974
0.147278772386
0.147384161504
0.147489964286
0.147594650352
0.147703296458
0.147818701542
0.147942576395
0.148082902436
0.148267107686
0.148512147295
0.14879271259
0.149050176288
0.149296009238
0.149545890709
0.149782985312
0.150018113962
0.150268080587
0.150528944217
0.150797032396
0.151070960733
0.151350196549
0.151633820701
0.151922677084
0.152220308943
0.152527919756
0.152848642635
0.15318632808
0.153542154938
0.153913670657
0.154294960488
0.154695195311
0.155131883497
0.155596189025
0.156049814186
0.156488398707
0.156922177448
0.157335058847
0.157683444919
0.157872009936
0.157660294393
0.157476974607
0.157420940734
0.157655470121
0.158569950474
0.159106073581
0.15954034845
0.159756970209
0.159856639741
0.159786202236
0.159486179947
0.158952631447
0.158211360296
0.157312319981
0.156318014374
0.155287831833
0.154241666849
0.153157182712
0.152003890683
0.150635911096
0.148537148477
0.146765315412
0.146178365483
0.14428832044
0.145816282648
0.153233617244
0.146176589028
0.146180245993
0.14618947316
0.146206135764
0.146236865919
0.146272660258
0.146317442004
0.146363370468
0.146431825767
0.146523403211
0.146619364915
0.146715186264
0.146807445818
0.146912307289
0.147024040269
0.147135899323
0.147243457881
0.147354663973
0.147464968067
0.147576783492
0.147694060615
0.147817031796
0.147955399515
0.14813367335
0.148369392846
0.148646027382
0.148924364645
0.149178723803
0.149423570458
0.149656859814
0.149888480167
0.15014107616
0.150407295873
0.150677431243
0.150959265881
0.15124699991
0.151536628773
0.151832541077
0.152137621497
0.15245366217
0.152782084781
0.153127247645
0.153492772875
0.15388122668
0.154293490603
0.154734861564
0.15521289769
0.155709861799
0.15620632288
0.156717505877
0.157251985374
0.157815854308
0.158357807596
0.158756139072
0.158554786246
0.157045860078
0.15707395213
0.157519114522
0.158205516587
0.158644745203
0.158911955608
0.159014228978
0.158955035751
0.158717921143
0.158276097296
0.15762473178
0.156781133471
0.15577838419
0.154656278226
0.153448728067
0.152175210112
0.150764161232
0.149153519719
0.14732004642
0.145124472354
0.1427527639
0.140956086102
0.13987207116
0.141692606389
0.133310350306
0.146000786552
0.146004020006
0.14601161577
0.146031389366
0.146061802318
0.146095025311
0.146136894336
0.146187927377
0.146251974585
0.146345066001
0.146442884023
0.146540136107
0.146633091255
0.14673760714
0.146859104191
0.146976768454
0.147088213357
0.147203614035
0.147320223865
0.147437662233
0.147559525842
0.147682346898
0.147818789012
0.147992724066
0.148219437602
0.148488900839
0.148774479333
0.14904095373
0.149277719448
0.149507112462
0.149745218342
0.149996970793
0.15026634542
0.150543939
0.150834220478
0.151129449531
0.151425864833
0.151729517681
0.152042734873
0.152367634683
0.152705665308
0.153060698997
0.153442603094
0.1538633028
0.154321452197
0.154798150926
0.155298348425
0.155827279427
0.156398689584
0.157037094874
0.15776857667
0.15865470957
0.159663893603
0.161145410752
0.16143501516
0.157588964383
0.156495420465
0.157284626938
0.157887557247
0.158096654733
0.158131347227
0.158035304239
0.157784895913
0.157361941071
0.156751124209
0.15594625011
0.154954206175
0.153791959213
0.152479595917
0.151030983355
0.149447605031
0.147661775173
0.145545430743
0.143035008041
0.140043781431
0.136572583943
0.132855489398
0.12841483698
0.12314280669
0.11588203809
0.145814100971
0.145817222046
0.14582522455
0.145849665529
0.14587896026
0.145909218743
0.14594599003
0.146000502342
0.146058955878
0.146151857593
0.146251627451
0.146350548587
0.146445383441
0.146551397211
0.146677864081
0.146801608867
0.146918582091
0.147038707584
0.147159895319
0.14728332618
0.147412278596
0.147537099537
0.147671371053
0.147842062109
0.148061083764
0.148322287702
0.148608620074
0.148880935395
0.149126031537
0.149351095547
0.149592875624
0.14984847577
0.150115317099
0.150389816229
0.150684188662
0.150992653992
0.151299870402
0.151613244971
0.151934346227
0.152267917152
0.152617541333
0.152987112928
0.15339627165
0.153861455642
0.154353007587
0.154850794635
0.15537723105
0.155970732636
0.156672163853
0.157485950149
0.158442040072
0.159623798659
0.160465583791
0.160394796584
0.160415921177
0.159624518008
0.157873517129
0.157534466704
0.157551206425
0.157430423592
0.157194814742
0.15685869097
0.15638916658
0.155758783246
0.154950610796
0.15395502816
0.152769756834
0.151397694951
0.149841379286
0.148095217943
0.146136293705
0.143918890044
0.141256103622
0.137949343071
0.133863978248
0.128727543573
0.121971774678
0.111816931347
0.0941269959677
0.0531365497977
0.145611150765
0.145613975382
0.14562410099
0.145654412639
0.145683049251
0.145711132567
0.145745209529
0.145799579359
0.145852311814
0.145942901481
0.146044568784
0.146145255679
0.146242195079
0.146349775757
0.146479111536
0.146608395678
0.146733122984
0.146858697856
0.146983440423
0.147111989444
0.147249153677
0.147379086266
0.147510896841
0.147678539457
0.14789181113
0.148143823162
0.14842462615
0.148691329006
0.148949091263
0.149186364588
0.149425884461
0.149678111303
0.149950572466
0.150233668253
0.150521331314
0.150832921872
0.151153040988
0.151477681254
0.151811388229
0.152154855121
0.152514408892
0.152907711913
0.153361743541
0.153866591106
0.154376112022
0.154896093509
0.155481579111
0.156198344057
0.157069096146
0.158010304536
0.158926764787
0.159636662308
0.159988367046
0.160224148298
0.159950672719
0.159162034741
0.157955702402
0.157283011952
0.156924656168
0.156542320667
0.156064430281
0.155485087657
0.154779639243
0.15392106956
0.152889764493
0.151671605618
0.150255904219
0.148632944046
0.146789323423
0.144701122519
0.142325231806
0.139590737478
0.136349965299
0.132280493006
0.127047378048
0.120219182269
0.110851746423
0.0968706984414
0.0743300649491
0.0377458425883
0.14538440488
0.14538698548
0.145399066006
0.145435056126
0.145462694934
0.145492087761
0.145525253654
0.145576673554
0.145626633575
0.145716585592
0.145820466701
0.145922910527
0.146021936621
0.146130633034
0.146260980858
0.146393504976
0.146528040231
0.146660464626
0.146788938773
0.14692189793
0.14706620271
0.147205374013
0.147336077702
0.147499421422
0.147708871824
0.147953016347
0.148226504516
0.148485977204
0.148740680326
0.148995362285
0.149249234968
0.14950129712
0.149759528923
0.150044640513
0.150345286821
0.150658121022
0.150985868921
0.151320896069
0.151666189026
0.152022898109
0.15240167656
0.152833366916
0.153334885008
0.15386379964
0.154396778141
0.154969450006
0.155657364948
0.156515222221
0.157475020572
0.158269306917
0.159038416333
0.159345300993
0.159556411193
0.159567943641
0.159219518042
0.158540123052
0.157626506725
0.156814904662
0.156147577499
0.155483762224
0.154747494068
0.153914240734
0.152960088036
0.151858423303
0.150586168068
0.149123584316
0.14745179681
0.145549826784
0.143390206043
0.14093265554
0.138115721529
0.134845615926
0.130985117214
0.126236962966
0.120100459092
0.112014438532
0.101148136549
0.0859749420219
0.0638065908437
0.0337159534074
0.145127299539
0.145131848969
0.14514442169
0.145179462621
0.145209892495
0.145246048851
0.145282102225
0.145333159403
0.145387425024
0.14547229088
0.145577860224
0.145682077456
0.145783264565
0.145892841468
0.146022948834
0.146155079932
0.146295203527
0.146438103301
0.146573185813
0.146711800026
0.146861000554
0.147012037698
0.147150446917
0.147304418344
0.147510815751
0.147749221552
0.148015435474
0.148269706259
0.148517172634
0.148778453521
0.149046946483
0.149312634988
0.149568628235
0.149842334106
0.150140724466
0.150461963632
0.150798766813
0.151145474525
0.151500000362
0.151871981709
0.152284774433
0.152767192532
0.153303453508
0.153857734615
0.154434856294
0.155087858137
0.155865880719
0.15664235889
0.157463384825
0.158385452164
0.158780072411
0.158930394687
0.15897482721
0.15883664036
0.15842494123
0.157743750677
0.156869502785
0.155957079199
0.155072859716
0.154170368671
0.153197122809
0.152124012629
0.150927305506
0.149581733328
0.148062435819
0.146345129063
0.144404022006
0.142208778306
0.139720315711
0.136884909373
0.133626203924
0.129834458553
0.125351178948
0.119953189358
0.11320188509
0.104417861656
0.0927838535487
0.0772688418159
0.0560076651454
0.0294763617741
0.14484447351
0.144852826065
0.144865107659
0.144892827288
0.144929622732
0.144972696781
0.145014508864
0.145069573109
0.145133446663
0.145212090547
0.145316281647
0.145421546648
0.145525011321
0.14563572053
0.145765825266
0.14589827074
0.146038070275
0.146190001019
0.146334807668
0.146481307652
0.146635539131
0.146797954794
0.146953923719
0.147109886261
0.147301741034
0.147534005474
0.147793678774
0.148044024475
0.148283425721
0.148542825763
0.148817027024
0.14910202232
0.14936734333
0.149633014497
0.149921825278
0.150240436847
0.150583460051