/*--------------------------------*- C++ -*----------------------------------*\
| =========                 |                                                 |
| \\      /  F ield         | OpenFOAM: The Open Source CFD Toolbox           |
|  \\    /   O peration     | Version:  v1806                                 |
|   \\  /    A nd           | Web:      www.OpenFOAM.com                      |
|    \\/     M anipulation  |                                                 |
\*---------------------------------------------------------------------------*/
FoamFile
{
    version     2.0;
    format      ascii;
    class       volVectorField;
    location    "128";
    object      U;
}
// * * * * * * * * * * * * * * * * * * * * * * * * * * * * * * * * * * * * * //

dimensions      [0 1 -1 0 0 0 0];


internalField   nonuniform List<vector> 
6400
(
(-7.6371101251e-05 -0.000103956600326 0)
(-0.00021318545029 -8.36648393236e-05 0)
(-0.000314668804087 -7.13795522824e-05 0)
(-0.000437577919659 -6.58940982399e-05 0)
(-0.000523587956333 -3.80458905279e-05 0)
(-0.000581612715618 -1.34901318922e-05 0)
(-0.000596103150678 -4.78903241887e-06 0)
(-0.000601180042736 -1.82439856607e-05 0)
(-0.000683422160773 -3.40958695516e-05 0)
(-0.000774503073996 -3.16756917121e-05 0)
(-0.000782853002558 -2.77972480055e-05 0)
(-0.000869292597781 -3.46861163689e-05 0)
(-0.000941601884603 -3.14120940652e-05 0)
(-0.000998288654567 -2.26051440242e-05 0)
(-0.00102917086934 -1.77865492718e-05 0)
(-0.00106449773307 -2.24804474129e-05 0)
(-0.00112070826926 -2.40104089247e-05 0)
(-0.00116295592299 -1.90335912222e-05 0)
(-0.00118208943982 -9.79987873589e-06 0)
(-0.00119048851751 -2.4195554706e-06 0)
(-0.00120855134452 -9.2877907481e-06 0)
(-0.00124521991942 -1.97194198079e-05 0)
(-0.00129488528298 -2.4208808607e-05 0)
(-0.00134094674149 -2.66665549972e-05 0)
(-0.00138758152128 -2.48973206738e-05 0)
(-0.0014303767016 -2.03827474451e-05 0)
(-0.00147550275703 -1.99835943839e-05 0)
(-0.00151761427987 -1.81088414468e-05 0)
(-0.00154928897252 -1.38941005714e-05 0)
(-0.00157232868068 -1.04275063954e-05 0)
(-0.00158595773776 -1.11681642452e-05 0)
(-0.00160622990248 -1.0363804162e-05 0)
(-0.00162636726819 -5.74211711752e-06 0)
(-0.00163643989493 -5.65005569284e-06 0)
(-0.00164074312624 -3.64305377703e-06 0)
(-0.00165782489667 -2.34187021166e-06 0)
(-0.00167646439656 -4.88763294607e-06 0)
(-0.0016525103737 -3.14012728173e-06 0)
(-0.0016627001175 -7.59506606368e-08 0)
(-0.00169086410554 -5.40451503134e-06 0)
(-0.00172730762375 -2.99746067682e-05 0)
(-0.00176488377294 -3.91341322023e-05 0)
(-0.00179541109605 -1.31537061703e-05 0)
(-0.00180574306601 1.94104302371e-06 0)
(-0.00179864058145 7.87275419597e-06 0)
(-0.00178471345949 1.41021322412e-05 0)
(-0.00176131872147 1.89334889465e-05 0)
(-0.00172599085054 2.44698254018e-05 0)
(-0.00168215893181 2.67510912922e-05 0)
(-0.00163683737968 1.67989893658e-05 0)
(-0.0016011141031 -3.14293954448e-06 0)
(-0.0016292911769 -1.78832585046e-06 0)
(-0.00158260491021 4.69453137557e-05 0)
(-0.0015108527505 6.26192707995e-05 0)
(-0.00139923420712 6.98101533259e-05 0)
(-0.00120415646197 8.94412444892e-05 0)
(-0.00102892504638 7.26257379789e-05 0)
(-0.000907477077486 5.3988223566e-05 0)
(-0.000808517630531 6.25139107962e-05 0)
(-0.000623401022923 6.69330876886e-05 0)
(-0.000467301601341 6.72972610673e-05 0)
(-0.000295491519881 9.21313529548e-05 0)
(-7.64501346328e-05 0.000125200443353 0)
(0.000172901809197 9.12815701659e-05 0)
(0.000303608168943 5.78087661197e-05 0)
(0.000385976129017 4.22312396824e-05 0)
(0.00045230913935 3.27703958038e-05 0)
(0.000517045270061 2.78375527434e-05 0)
(0.000580896271224 2.4579647214e-05 0)
(0.000628980217295 1.90815123511e-05 0)
(0.000665115246082 1.12492803711e-05 0)
(0.000669954191108 5.49003468122e-07 0)
(0.000645116033912 -1.36000451675e-05 0)
(0.000631216171482 -3.24374779536e-05 0)
(0.000518530895364 -3.57968675994e-05 0)
(0.000485717210005 -3.9491060832e-05 0)
(0.000340254940592 -2.76161809892e-05 0)
(0.000366828750262 -4.67274593325e-05 0)
(0.000162908988152 -3.72477498308e-05 0)
(0.000122461742895 -7.28276591339e-05 0)
(-2.7236520081e-05 -0.000140178909467 0)
(-0.000117580778909 -0.000161612824063 0)
(-0.000207106174934 -0.000152580682885 0)
(-0.000261579490925 -0.00012130203306 0)
(-0.000393792995622 -0.000121013988758 0)
(-0.000535151912714 -8.51587115284e-05 0)
(-0.000621006863144 -4.5851945555e-05 0)
(-0.000672347816526 -6.76030264932e-05 0)
(-0.00072486484902 -9.85454013068e-05 0)
(-0.00078627954412 -9.57999976526e-05 0)
(-0.000845115757557 -9.0691800285e-05 0)
(-0.000897986966392 -9.43186320484e-05 0)
(-0.000946105042391 -8.34926221921e-05 0)
(-0.000989535843793 -6.62449922672e-05 0)
(-0.001035511932 -5.75216272647e-05 0)
(-0.00108021732287 -7.58761833798e-05 0)
(-0.00112492847552 -8.03305556572e-05 0)
(-0.00115243505265 -3.80402230665e-05 0)
(-0.00110485952345 -1.02024397482e-05 0)
(-0.00112534169114 -7.32096816615e-06 0)
(-0.00116119604588 -3.25004797085e-05 0)
(-0.00121565816772 -7.2446490213e-05 0)
(-0.00129470528198 -8.75359616884e-05 0)
(-0.00135821248762 -7.67118005147e-05 0)
(-0.0013698167161 -6.87002564077e-05 0)
(-0.00143311127483 -6.77389845799e-05 0)
(-0.00148631922666 -6.20995266382e-05 0)
(-0.00152026633099 -5.15573316648e-05 0)
(-0.00154729422569 -4.05592796511e-05 0)
(-0.00157031351472 -3.14842566188e-05 0)
(-0.00159075243514 -2.91729155246e-05 0)
(-0.0015855554509 -2.49912632126e-05 0)
(-0.00160304824613 -1.05740924565e-05 0)
(-0.00160549656135 -1.35236465121e-05 0)
(-0.00159505943863 -1.85229837439e-05 0)
(-0.00164438896707 -4.82236077685e-06 0)
(-0.00163626676633 -1.06948571506e-05 0)
(-0.00161974109504 -2.06088863943e-05 0)
(-0.00165068006746 -1.71450041958e-05 0)
(-0.00171468408277 -1.62300880422e-05 0)
(-0.0017584785166 -1.14356768654e-05 0)
(-0.00152754082638 -3.98010421813e-06 0)
(-0.0014724258134 -8.82650589043e-07 0)
(-0.00148747722355 1.09405869489e-06 0)
(-0.00149027705581 3.76831169278e-06 0)
(-0.00151255152662 8.93123399134e-06 0)
(-0.00154391330172 1.82488745796e-05 0)
(-0.00155362874375 2.98833380266e-05 0)
(-0.00157863874229 4.1685712396e-05 0)
(-0.00158051293475 4.86387616006e-05 0)
(-0.00152267036355 4.44234973174e-05 0)
(-0.00139512628894 4.32661377559e-05 0)
(-0.0012769530934 5.28087696567e-05 0)
(-0.00150821949237 0.000104169294356 0)
(-0.00136508231393 0.000168453922897 0)
(-0.00126686151523 0.00020316277379 0)
(-0.00127172680438 0.000208145345007 0)
(-0.0011510885003 0.00020017944439 0)
(-0.000997649381817 0.000227512330333 0)
(-0.000831068347134 0.000270586678916 0)
(-0.00063503491406 0.000311270756695 0)
(-0.00031283321733 0.000286398213594 0)
(-9.6640744253e-05 0.000370099416426 0)
(0.000159433655808 0.00028500574636 0)
(0.000295351580603 0.000184337062568 0)
(0.000365568009251 0.00011823658053 0)
(0.000424345679539 9.45535679008e-05 0)
(0.000510645998586 9.11303442746e-05 0)
(0.00057862444674 8.0151994834e-05 0)
(0.000637661036801 6.05314243393e-05 0)
(0.000667228073998 3.00657298163e-05 0)
(0.000665983201412 -7.08427710361e-06 0)
(0.000625763082704 -3.69617265821e-05 0)
(0.000626887403694 -7.03337076453e-05 0)
(0.000586253255889 -9.4663990614e-05 0)
(0.00053446202863 -0.000110852709169 0)
(0.000462888723814 -0.000112385923187 0)
(0.000382829223272 -0.000141783925216 0)
(0.000243332283563 -0.000169700050006 0)
(0.000114767092739 -0.000291518424686 0)
(-4.29610738602e-05 -0.000241606967528 0)
(-0.000116334745265 -0.000271460962451 0)
(-0.000178377614911 -0.000259593705793 -9.8814259673e-29)
(-0.000324183092005 -0.000276925931434 9.763239403e-29)
(-0.000469807777949 -0.000286267932608 9.23093031646e-29)
(-0.000546783637442 -0.000229694346904 -8.58410857586e-29)
(-0.000594361318555 -0.000110448790081 8.81157065017e-29)
(-0.000648750793416 -0.000123378279623 -8.97289642831e-29)
(-0.000706056573133 -0.000156273202061 0)
(-0.000773091925673 -0.000162385020964 0)
(-0.000839842276754 -0.000153456861834 0)
(-0.000895400605428 -0.000142278634451 0)
(-0.000943850872055 -0.000125816049397 0)
(-0.000985392337083 -0.000113894941489 0)
(-0.00102586871004 -0.000101511862991 0)
(-0.00106470611451 -7.32112602614e-05 0)
(-0.000882221110885 -3.30247537622e-05 0)
(-0.000833922587626 -1.10182815715e-05 0)
(-0.000854469439287 -1.9635759722e-05 0)
(-0.000919703479986 -6.60516742367e-05 0)
(-0.00112696168533 -0.000127971367551 0)
(-0.00125457572844 -0.000155957941982 0)
(-0.00126383845651 -0.000145157537389 0)
(-0.00132997446284 -0.000130120749644 0)
(-0.00140063035908 -0.000121885275482 0)
(-0.00144392303632 -0.00011550669095 0)
(-0.00147883014053 -9.91768428299e-05 0)
(-0.00151254040722 -8.09316477114e-05 0)
(-0.00153967571533 -6.4382582828e-05 0)
(-0.00155454301883 -5.17628547088e-05 -2.10756618051e-28)
(-0.00158295807864 -3.94088253413e-05 2.05497649669e-28)
(-0.00156037941357 -2.9762922268e-05 0)
(-0.00156152748592 -1.62523697681e-05 0)
(-0.00161455368726 9.91915216691e-07 0)
(-0.0015084132909 -1.80905696442e-05 0)
(-0.00154818351953 -2.65797307345e-05 0)
(-0.00164255539801 -1.21949563303e-05 0)
(-0.00154325752425 -3.14984921301e-05 0)
(-0.00160404584864 -6.45648692423e-05 0)
(-0.00170960495456 -5.96123622379e-05 0)
(-0.0017764034963 1.98328919692e-06 0)
(-0.00179464794459 4.10191978113e-05 0)
(-0.00180508836509 1.88297878549e-05 0)
(-0.00180787510103 2.96709289731e-06 0)
(-0.00180112773635 7.27175390433e-07 0)
(-0.0017882253589 4.10333966444e-06 0)
(-0.00177062116159 1.61627129548e-05 0)
(-0.00174908666796 3.15314973407e-05 0)
(-0.00172427278205 5.07658347013e-05 0)
(-0.00169746711395 7.93430311725e-05 0)
(-0.00167095214037 0.000108731747384 0)
(-0.00163994038004 0.000119472523474 0)
(-0.00158624447685 9.82785325965e-05 0)
(-0.00147569794807 0.000143744090818 0)
(-0.00134681644101 0.00021622537012 0)
(-0.00133939354948 0.000255681508971 0)
(-0.00127066974487 0.000286520528648 0)
(-0.00114409351222 0.000330500981648 0)
(-0.000989855956005 0.000384753183596 0)
(-0.00081464545101 0.000451866282063 0)
(-0.000614981450465 0.000526882098482 0)
(-0.000393664719221 0.000603564104486 0)
(-0.000141436152297 0.000665953439571 0)
(0.00010273991998 0.000462002835482 0)
(0.000238711779509 0.000280692883746 0)
(0.000346306308098 0.000206107344242 0)
(0.000439693113986 0.000177531271172 0)
(0.000509383595645 0.000157712134719 0)
(0.000569274312017 0.000131231477193 0)
(0.000616530077383 9.35349908065e-05 0)
(0.000642889568493 4.67236048167e-05 0)
(0.000657403429969 3.06565734302e-07 0)
(0.000684060902012 -4.01051219141e-05 0)
(0.000685606743587 -9.4606858932e-05 0)
(0.000633170959477 -0.000151014980665 0)
(0.000558154840971 -0.000182381931713 0)
(0.000472473519424 -0.00020056735012 0)
(0.000382219200501 -0.000266739824082 0)
(0.000271824818005 -0.000397153968478 0)
(7.27431151271e-05 -0.000416389957847 0)
(-4.44341796056e-05 -0.000372325565065 0)
(-4.89465806514e-05 -0.000237742722538 0)
(-0.000149440817909 -0.00040360011969 0)
(-0.000296445937013 -0.000422724943487 0)
(-0.000395935769866 -0.00035165702162 0)
(-0.000198515830357 -0.000117774729799 0)
(-0.000243526733607 -0.000117625593276 0)
(-0.000492523708492 -0.000240603989562 0)
(-0.000654554080682 -0.000271986414107 0)
(-0.000740715651088 -0.000245754176088 0)
(-0.000825256314365 -0.000225317720257 0)
(-0.000890661667996 -0.000200835259485 0)
(-0.000940485437963 -0.000172331945903 0)
(-0.000963045892982 -0.000119996842815 0)
(-0.000849485251916 -4.88755479601e-05 0)
(-0.000773394175565 -4.71742536102e-06 0)
(-0.000764138034115 2.4616648721e-06 0)
(-0.000818031393213 -4.10742017291e-05 0)
(-0.000966376749142 -0.000117981426266 0)
(-0.00115591313527 -0.000213969154714 0)
(-0.00119572875635 -0.000238416975591 0)
(-0.00124057701883 -0.000219077749993 0)
(-0.00130344099971 -0.000202412803013 0)
(-0.00135532228407 -0.000190462837378 0)
(-0.00139745451543 -0.000172618823621 0)
(-0.00143386331321 -0.000151611848934 0)
(-0.00146311973463 -0.000130854430261 0)
(-0.00150544364714 -0.000109166496478 0)
(-0.00151715154198 -8.7011992236e-05 0)
(-0.00155750684734 -6.77647492169e-05 0)
(-0.00153426168398 -4.86371388189e-05 0)
(-0.00157922722287 -2.70421472418e-05 0)
(-0.00150750473712 -1.62714168873e-06 0)
(-0.00151131627217 1.68343071862e-06 0)
(-0.00160123113897 -1.38620478979e-05 0)
(-0.00150997574608 -4.43204446485e-05 0)
(-0.00159426236311 -5.82683424542e-05 0)
(-0.00171127602481 -7.91048254604e-05 0)
(-0.00174222759943 -0.00011300485471 0)
(-0.00175344740628 -9.78170167372e-05 0)
(-0.00177035355992 -4.20246037614e-05 0)
(-0.00178825478926 5.38024696795e-07 0)
(-0.00180084983722 8.4556745596e-06 0)
(-0.00180500683645 7.96246821134e-06 0)
(-0.00180028462199 1.23012009976e-05 0)
(-0.00178925168655 2.20224986467e-05 2.23312813019e-28)
(-0.00177354181961 3.70988173105e-05 -2.24839310539e-28)
(-0.00175388690589 5.58728251289e-05 0)
(-0.00173066591306 7.8333663656e-05 0)
(-0.00170418739566 0.000104902548856 0)
(-0.00167382335358 0.000131720072826 0)
(-0.001634443166 0.000155775886761 0)
(-0.00157814544164 0.000185755701808 0)
(-0.00150620454724 0.00023881237268 0)
(-0.00143301754649 0.000286161553146 0)
(-0.00135877998043 0.000328173632583 0)
(-0.00126493861067 0.000395023155563 0)
(-0.00113806200194 0.000473775289443 4.10146354154e-28)
(-0.000978648303152 0.000558036075914 -4.56248481045e-28)
(-0.000793313574898 0.000647857722968 0)
(-0.000589041126422 0.000734658735529 0)
(-0.000378453194634 0.000809657915904 0)
(-0.000188010215828 0.000838303734797 0)
(3.11691802469e-05 0.000667204392628 0)
(0.000226752311404 0.000448990504956 0)
(0.000337883474656 0.000307348027868 0)
(0.000424253967058 0.000250405850604 0)
(0.000504466282032 0.000220275619857 0)
(0.000572469667057 0.000184175687168 0)
(0.000639006738818 0.000138065298964 0)
(0.000693183073847 8.4826595542e-05 0)
(0.000733955207526 2.80606486997e-05 0)
(0.000733801155418 -4.87263802259e-05 0)
(0.000657287261278 -0.000136583584841 0)
(0.00059384200703 -0.000210808355772 0)
(0.000528469582152 -0.00027251296021 0)
(0.000425493715078 -0.000314888441153 0)
(0.000264048644644 -0.000320609308955 0)
(0.000196854083743 -0.000464725440161 0)
(6.76180078864e-05 -0.000564961315129 0)
(-1.5592093509e-06 -0.000360225739041 0)
(-2.12133584558e-05 -0.000290923562733 0)
(-0.000142464790707 -0.000549653357454 0)
(-0.00025102927525 -0.000501989519679 0)
(-0.00023957046731 -0.000296032951606 0)
(-0.000180040733859 -0.000154799705072 0)
(-0.000314400080219 -0.000270704063591 0)
(-0.000538392980798 -0.000431793890191 0)
(-0.000614488019563 -0.000390637202945 0)
(-0.000708586652682 -0.000339311534876 0)
(-0.000795201570198 -0.000312171068191 0)
(-0.000862192543936 -0.00026287362662 0)
(-0.000832927133318 -0.000151365961596 0)
(-0.000720061183783 -5.10754769021e-05 0)
(-0.0007327405056 -1.20112195529e-05 0)
(-0.00078096559494 -2.03400398207e-05 0)
(-0.000878250348545 -7.38241434613e-05 0)
(-0.00102456238543 -0.000170999043353 0)
(-0.00114197156098 -0.000255210711836 0)
(-0.00114071912514 -0.000266763729028 0)
(-0.00118462086333 -0.000273419395682 0)
(-0.00125475734976 -0.000277374238002 0)
(-0.00130425793231 -0.000260081758128 0)
(-0.00134973847804 -0.00023510780031 0)
(-0.00138796127092 -0.000209769890489 0)
(-0.00141753847232 -0.000187268704215 0)
(-0.00146347623555 -0.000162059941246 0)
(-0.00146627163233 -0.000134094722659 0)
(-0.00152485724645 -0.00010830826598 0)
(-0.00148907698233 -7.87563221726e-05 0)
(-0.0015639438742 -5.28081903336e-05 -1.99132934582e-28)
(-0.00145501550163 -2.32135056113e-05 1.76823321796e-28)
(-0.00153411021556 -8.49142451212e-06 0)
(-0.00159229409574 -3.90691296377e-06 0)
(-0.00151648193969 -2.99862795863e-05 0)
(-0.00163846894792 -8.57455370943e-05 0)
(-0.00168920686082 -0.000134349829257 0)
(-0.00172815413772 -0.000139655128741 0)
(-0.00174826510114 -0.000127038829643 0)
(-0.00175883263602 -0.000100494290081 0)
(-0.00177383160479 -5.82731401548e-05 0)
(-0.00179028683871 -2.08232656149e-05 0)
(-0.00180196874317 -1.73492837292e-06 0)
(-0.00180622453615 8.80153125559e-06 0)
(-0.00180275142363 2.02564598341e-05 0)
(-0.00179340020764 3.53121868196e-05 0)
(-0.00177934483678 5.44016435969e-05 0)
(-0.00176111633675 7.6993275728e-05 0)
(-0.00173876030304 0.000103316655542 0)
(-0.00171188253203 0.000133798020182 0)
(-0.00167929467242 0.000167540199589 0)
(-0.00163778342543 0.000204482493792 0)
(-0.00158402989913 0.00024798357472 0)
(-0.00151915876502 0.000301092620731 0)
(-0.00144791160578 0.000356592337938 0)
(-0.00136805282095 0.000423226568111 0)
(-0.00126785587785 0.000514168361227 0)
(-0.00113625569574 0.00062271930335 0)
(-0.000970198796501 0.000735756736049 0)
(-0.000778313173623 0.000843656361408 0)
(-0.000575496866901 0.0009372615016 0)
(-0.000381755990959 0.00100839507873 0)
(-0.000229574561782 0.0010093777842 0)
(-2.15430109194e-05 0.00089524987811 0)
(0.000211288657009 0.000641888104307 0)
(0.000340055834666 0.00043521874292 0)
(0.000436374430343 0.000343751663713 0)
(0.00051782888706 0.000294205899873 0)
(0.00058937925422 0.000247974441597 0)
(0.000666231829329 0.000198591713767 0)
(0.000747907630737 0.000137126783378 0)
(0.000776323133795 3.43065939723e-05 0)
(0.000702860082531 -9.17813178614e-05 0)
(0.000648282273661 -0.000197255757896 0)
(0.000594992745081 -0.0002899515607 0)
(0.000518496366655 -0.000378763986475 0)
(0.000389490383803 -0.000412973339492 0)
(0.000266296102593 -0.000436779514962 0)
(0.000185113469481 -0.000610802139788 0)
(5.29515163992e-05 -0.000666999432659 0)
(2.57002378148e-06 -0.000331545738555 0)
(-3.03732887642e-05 -0.000357419137988 0)
(-0.000147551758502 -0.000625963335954 0)
(-0.000196125037446 -0.000487248009446 0)
(-0.000135986306392 -0.0002199953726 0)
(-0.000182898636683 -0.000225292064501 0)
(-0.000432309736192 -0.000477529708934 0)
(-0.000530464283707 -0.000525477801577 0)
(-0.000589562602386 -0.000473106639705 0)
(-0.000667088381073 -0.000426585855136 0)
(-0.000740879083863 -0.000356621744703 0)
(-0.000637850624216 -0.000206805796454 0)
(-0.000566265331831 -8.76132015825e-05 0)
(-0.000616085348693 -5.5090594499e-05 0)
(-0.000677678849497 -6.83967250555e-05 0)
(-0.000809250262614 -0.000129028089463 0)
(-0.000974712818181 -0.0002189795147 0)
(-0.00109223907888 -0.0002764750829 0)
(-0.00106094687955 -0.000267655328294 0)
(-0.00111934613515 -0.000299505645124 0)
(-0.00120446788745 -0.000337573275176 0)
(-0.00125192419951 -0.000331959580437 0)
(-0.00129536502914 -0.000307192727181 0)
(-0.00133252745084 -0.000278430228507 0)
(-0.00138464718534 -0.000251587840969 0)
(-0.00141504282543 -0.000214481735213 0)
(-0.00139352185241 -0.000184248055174 0)
(-0.00148621075357 -0.000160948007119 0)
(-0.00141586019921 -0.00011772871608 0)
(-0.00153083575022 -8.2758895367e-05 0)
(-0.00137185471327 -3.93452895492e-05 0)
(-0.00151413330671 -3.24865983476e-05 0)
(-0.00138809529589 -3.03835914532e-05 0)
(-0.00150120114966 -4.07968230633e-05 0)
(-0.00162244711749 -9.19521071246e-05 0)
(-0.00168146815018 -0.000156421287552 0)
(-0.00171232697032 -0.000172475602539 0)
(-0.00173459688551 -0.000162597374142 0)
(-0.00175000139664 -0.000140908079711 0)
(-0.00176371803137 -0.000111355842403 0)
(-0.00177866142959 -7.41406683659e-05 0)
(-0.00179368072344 -3.82092122545e-05 0)
(-0.00180482357662 -1.17879027988e-05 0)
(-0.0018092503655 7.92415667242e-06 0)
(-0.00180700354781 2.65833541782e-05 0)
(-0.00179899168951 4.71340561791e-05 0)
(-0.00178630081162 7.06275377786e-05 0)
(-0.00176908114972 9.74186634663e-05 0)
(-0.00174690659776 0.000128211797016 0)
(-0.00171926100871 0.000163817790827 0)
(-0.00168531083335 0.000204614559337 0)
(-0.00164338747869 0.000251178501862 0)
(-0.00159209050037 0.000304536276134 0)
(-0.00153168110046 0.000365055521896 0)
(-0.00146233419388 0.000433727319906 0)
(-0.0013797215729 0.000521102624571 0)
(-0.00127457635325 0.000636495214339 0)
(-0.001139765621 0.000773275595489 0)
(-0.000975971285966 0.000915281602257 0)
(-0.000785866777575 0.00103770366063 0)
(-0.00059449534616 0.00112865737374 0)
(-0.000423228170616 0.0011571832919 0)
(-0.000241605853913 0.00104365751769 0)
(-6.88318720929e-05 0.0011788927358 0)
(0.000167184090891 0.000813110129571 0)
(0.000308466858758 0.000555508132534 0)
(0.000429691273337 0.000441761144719 0)
(0.000536118528007 0.000376959120441 0)
(0.000624391013483 0.000323510869741 0)
(0.000731559249246 0.000275515133568 0)
(0.000813357216645 0.00017480614925 0)
(0.000765900917165 7.23286195707e-06 0)
(0.000704990903207 -0.000136840916462 0)
(0.000677213332641 -0.00025513038709 0)
(0.000615407844578 -0.000371272825104 0)
(0.000538240582585 -0.000486457414598 0)
(0.000395658602989 -0.000505203803724 0)
(0.000283954195162 -0.000545924217095 0)
(0.000195287558731 -0.000732538917947 0)
(5.99440639396e-05 -0.000773154183933 0)
(-1.14437845947e-05 -0.000359850962537 0)
(-8.12635942624e-05 -0.000479740523876 0)
(-0.000202461816472 -0.00068249071445 0)
(-0.000214348982491 -0.000611715105441 0)
(-0.00012698800662 -0.00027148954636 0)
(-0.000281117056953 -0.000420133181683 0)
(-0.000475031028599 -0.00060860004479 0)
(-0.000511375429694 -0.000585207549116 0)
(-0.00057039511263 -0.000530873782138 0)
(-0.000590527557465 -0.000464732807501 0)
(-0.000694176173168 -0.000369724435458 4.03001084446e-28)
(-0.000487749039933 -0.000140485939314 -2.09070348899e-28)
(-0.000573333759571 -0.000112422579593 0)
(-0.000606172433313 -0.000116962301951 0)
(-0.000715183327255 -0.000177616637205 0)
(-0.000894576631493 -0.000289632217762 0)
(-0.00102412086678 -0.00033774549679 0)
(-0.000961793884784 -0.000281173404672 0)
(-0.00102845277791 -0.000306720882682 0)
(-0.00114405132792 -0.00037893889377 0)
(-0.00119122954755 -0.000397110674495 0)
(-0.00124251673305 -0.000380204159698 0)
(-0.00128822683486 -0.000352262381973 0)
(-0.00132910292012 -0.000317466599281 0)
(-0.00134733272198 -0.000273659722501 0)
(-0.00133779363213 -0.00022546899589 0)
(-0.00141690552664 -0.000203822078237 0)
(-0.00132567171508 -0.000170154137949 0)
(-0.00147535568492 -0.000133124294699 0)
(-0.00130523337266 -5.62823731861e-05 0)
(-0.00145286274106 -4.63539595082e-05 0)
(-0.00135268120011 -5.48948303516e-05 1.64002720545e-28)
(-0.0014781170328 -6.27245328365e-05 -1.81906166898e-28)
(-0.00149964267385 -0.000122266069646 0)
(-0.00166722749369 -0.000189401631856 0)
(-0.00169914740082 -0.000205186345317 0)
(-0.00171831103444 -0.000197421716587 0)
(-0.00173543808493 -0.000179562033471 0)
(-0.00175309881297 -0.000155052384646 0)
(-0.00176950970877 -0.000124819206528 0)
(-0.00178457266087 -8.92439031058e-05 0)
(-0.00179893869571 -5.30253321488e-05 0)
(-0.00180970984856 -2.12728476503e-05 0)
(-0.00181444977138 5.9208900689e-06 0)
(-0.0018130609934 3.13983105897e-05 0)
(-0.00180621567322 5.75856696841e-05 0)
(-0.00179453821685 8.59385482756e-05 0)
(-0.00177772995982 0.00011753731681 0)
(-0.00175515704919 0.00015349274845 0)
(-0.0017265614023 0.000194822690172 0)
(-0.00169172019939 0.000242264538787 0)
(-0.00164997703206 0.000296372064298 0)
(-0.00160075810615 0.000357642967303 0)
(-0.00154353740247 0.000427461133354 0)
(-0.00147636510801 0.000511086503083 0)
(-0.00139418273263 0.000619344082102 0)
(-0.00128973526695 0.000758504352969 0)
(-0.0011581923447 0.000920366796302 0)
(-0.000999320014067 0.00108449068208 0)
(-0.000821962890266 0.0012213983386 0)
(-0.000647954486836 0.00129404746133 0)
(-0.000495325153227 0.00130737386482 0)
(-0.000334879123268 0.00135406133104 0)
(-0.000171200066809 0.00135283500638 0)
(8.34492194535e-05 0.000990686336715 0)
(0.00027802094408 0.000685570728756 0)
(0.000444282968873 0.000581173199757 0)
(0.000592650290551 0.000506223617322 0)
(0.000712464226281 0.000435384016195 0)
(0.000816309519991 0.000344166429943 0)
(0.000838812239683 0.000170825540223 0)
(0.000775553629919 -2.32689312209e-05 0)
(0.000759151063193 -0.000173702423178 0)
(0.000726142799079 -0.000310552629939 0)
(0.000668485832034 -0.000456931758345 0)
(0.00056769496183 -0.000567677100009 0)
(0.000453863220325 -0.000628782951648 0)
(0.000310998848412 -0.000664260837857 0)
(0.000210325859048 -0.000847016963154 0)
(7.29526231543e-05 -0.00091558610484 0)
(-2.48856759858e-05 -0.000421274207968 0)
(-0.000124682284906 -0.000609298679135 0)
(-0.00023367727925 -0.000699724320738 0)
(-0.00012495723184 -0.000367997527877 0)
(-0.000132839719661 -0.00034255084277 0)
(-0.000356107149539 -0.000629132742084 0)
(-0.000439878729372 -0.000669175970094 0)
(-0.000499731440449 -0.000643921605624 0)
(-0.000515167572848 -0.00055407864339 0)
(-0.000570784601795 -0.000490589847884 0)
(-0.000425284205762 -0.000249147218193 0)
(-0.000493399607075 -0.000167799500974 0)
(-0.000559723591188 -0.000164782901943 0)
(-0.000605323130266 -0.00019768422875 0)
(-0.000790934040353 -0.000324737924202 0)
(-0.000946722683156 -0.000407999724517 0)
(-0.000879054099838 -0.000332853328553 0)
(-0.000925740978981 -0.000321533116172 0)
(-0.00105653747116 -0.000401513590122 0)
(-0.00113618663467 -0.000450282398459 0)
(-0.00117367113396 -0.000446369272928 0)
(-0.00121378766831 -0.000424797817573 0)
(-0.00127238585588 -0.000401458375228 0)
(-0.00130928461879 -0.000358737023317 0)
(-0.00136310943259 -0.000292301437785 0)
(-0.00130434368888 -0.000246480488054 0)
(-0.0014117767788 -0.000215306460971 0)
(-0.00136100837899 -0.000168066410673 0)
(-0.00131233473297 -0.000119759195786 0)
(-0.00133990883338 -8.81811236539e-05 0)
(-0.00150412805657 -8.03602547948e-05 0)
(-0.0014226347449 -6.57370624601e-05 0)
(-0.00141288230893 -0.000128379997621 0)
(-0.00164352927774 -0.000225384511041 0)
(-0.00167221702579 -0.000258538974253 0)
(-0.00169989992089 -0.000239969472954 0)
(-0.0017199618152 -0.000218233058932 0)
(-0.0017375289607 -0.00019675251455 0)
(-0.00175692123814 -0.000171468512838 0)
(-0.00177572883337 -0.00014046709466 0)
(-0.00179184086163 -0.000104461364962 0)
(-0.00180579271766 -6.66663933304e-05 0)
(-0.00181648515631 -3.04252671589e-05 0)
(-0.00182183475211 3.16290438656e-06 0)
(-0.00182129855484 3.50887380228e-05 2.16130191244e-28)
(-0.0018153828658 6.70659282637e-05 -2.15587137821e-28)
(-0.00180424156632 0.000100830982266 0)
(-0.00178720007427 0.000137931708283 0)
(-0.00176362558864 0.000179578962775 0)
(-0.00173373490922 0.000226695879555 0)
(-0.0016979274213 0.000280035743672 0)
(-0.00165631003375 0.000340292494927 0)
(-0.00160888544689 0.00040858426593 0)
(-0.00155480279358 0.000488041514458 0)
(-0.00149128457141 0.000585946936078 0)
(-0.00141366237995 0.000712392314499 0)
(-0.00131677771357 0.000871951681574 0)
(-0.00119680080742 0.00105723274295 0)
(-0.00105183810154 0.00124737955945 0)
(-0.000885085448711 0.00139249088006 0)
(-0.000719920823166 0.00144036707708 0)
(-0.000580012490114 0.0014621728131 0)
(-0.00043552224427 0.00148815016599 0)
(-0.000288636285455 0.00148677725034 0)
(-5.41054402427e-05 0.00141266642563 0)
(0.000241871318127 0.000882215800712 0)
(0.000464872424285 0.000752819702214 0)
(0.000655305820771 0.000652888242902 0)
(0.000786022637386 0.000533645264315 0)
(0.000867276900192 0.000375638910499 0)
(0.000863432260119 0.000157325370338 0)
(0.000835673310306 -3.99986077585e-05 0)
(0.000835237885174 -0.000202017396083 0)
(0.000799975436227 -0.000365233804249 0)
(0.000742780688414 -0.000536230561907 0)
(0.000633780076911 -0.000659375960489 0)
(0.000529806432381 -0.000766352928928 0)
(0.000361738118142 -0.000824961634213 0)
(0.000220409033786 -0.000974945732561 0)
(7.76978403827e-05 -0.0010837614059 0)
(-3.6896161097e-05 -0.000503216259705 0)
(-0.000151419950175 -0.00072431150782 0)
(-0.000194490855042 -0.000706315886845 0)
(-0.000120610544589 -0.00040307916304 0)
(-0.000201193714062 -0.000471386494794 0)
(-0.000386866560116 -0.00073632414576 0)
(-0.000401987930385 -0.0007239988133 0)
(-0.000488336033638 -0.000696325394543 0)
(-0.000427853040582 -0.000525274019798 0)
(-0.000588407063109 -0.000549095892842 0)
(-0.000416322454143 -0.000266786822989 0)
(-0.000512544918012 -0.000231036718939 0)
(-0.000556444665082 -0.000230868854875 0)
(-0.000663779418393 -0.000321372308801 0)
(-0.000846119696101 -0.000470588545355 0)
(-0.000931624106684 -0.00046399947379 0)
(-0.000855461587913 -0.000358784275668 0)
(-0.000948672160306 -0.000405241711284 0)
(-0.00105561248758 -0.000487075610023 0)
(-0.00111322865068 -0.000508224261843 0)
(-0.00116341800809 -0.000493064610324 0)
(-0.00118663267094 -0.00046175466322 0)
(-0.00123431901286 -0.000434590766678 0)
(-0.00124081976907 -0.000385229065418 0)
(-0.0012273111403 -0.000293402117239 0)
(-0.00134861483579 -0.00026684721712 0)
(-0.00120685418081 -0.00022282232552 0)
(-0.0014488164159 -0.000187403578036 0)
(-0.00128084470033 -0.000140210403732 0)
(-0.00150431929663 -0.00014472706851 0)
(-0.00132775951667 -0.000105271799913 0)
(-0.00154047356751 -0.000116990763028 0)
(-0.00158901602048 -0.000211848699577 2.11064150286e-28)
(-0.00165418411634 -0.000295171090711 -2.27115898603e-28)
(-0.00167610294947 -0.000292466868514 0)
(-0.00169902715122 -0.000266628244016 0)
(-0.00172207689825 -0.00024045074805 0)
(-0.00174162070946 -0.000216124765365 0)
(-0.00176168520231 -0.00018978383208 0)
(-0.0017816722468 -0.00015792173099 0)
(-0.00179947236945 -0.000120490624757 0)
(-0.00181428902599 -8.01656633528e-05 0)
(-0.00182535016929 -3.96809672569e-05 0)
(-0.00183146717512 -3.67753752768e-07 0)
(-0.00183209578255 3.78425028042e-05 0)
(-0.00182697070896 7.60155499025e-05 0)
(-0.00181573657724 0.000115878503635 0)
(-0.00179772012447 0.000159183504903 0)
(-0.0017725328248 0.00020698846636 0)
(-0.00174073875773 0.000259812763426 0)
(-0.00170338319332 0.000318270725572 0)
(-0.00166144530906 0.00038344053887 0)
(-0.0016156608181 0.00045753208113 0)
(-0.00156535972406 0.000545205822024 0)
(-0.00150778540256 0.000654427279269 0)
(-0.00143910897373 0.000794174449149 0)
(-0.00135565679693 0.000968763280083 0)
(-0.00125469188569 0.00117421687188 0)
(-0.0011366590962 0.00139149363619 0)
(-0.00100000847118 0.00155138250636 0)
(-0.000859288740017 0.0015774681264 0)
(-0.000728376973938 0.0015931066007 0)
(-0.000568966959174 0.00164491666888 0)
(-0.00037358027626 0.00167472529364 0)
(-0.000168160660358 0.00161165074895 0)
(0.000169666533011 0.00128541855477 0)
(0.000480053252502 0.00090267562674 0)
(0.000747319923626 0.000831826657968 0)