/*--------------------------------*- C++ -*----------------------------------*\
| =========                 |                                                 |
| \\      /  F ield         | OpenFOAM: The Open Source CFD Toolbox           |
|  \\    /   O peration     | Version:  v1806                                 |
|   \\  /    A nd           | Web:      www.OpenFOAM.com                      |
|    \\/     M anipulation  |                                                 |
\*---------------------------------------------------------------------------*/
FoamFile
{
    version     2.0;
    format      ascii;
    class       volVectorField;
    location    "156";
    object      U;
}
// * * * * * * * * * * * * * * * * * * * * * * * * * * * * * * * * * * * * * //

dimensions      [0 1 -1 0 0 0 0];


internalField   nonuniform List<vector> 
6400
(
(-7.89965832715e-05 -0.000107288250553 0)
(-0.000220037483154 -8.59988095953e-05 0)
(-0.000324561071048 -7.30775615836e-05 0)
(-0.000450357631146 -6.7190127103e-05 0)
(-0.000538492986965 -3.88947884445e-05 0)
(-0.000598113504995 -1.41978394902e-05 0)
(-0.000614058545227 -5.43279231084e-06 0)
(-0.000620496512921 -1.89336019006e-05 0)
(-0.000704295753193 -3.47983931995e-05 0)
(-0.000796225779064 -3.23178887884e-05 0)
(-0.000806292694612 -2.83729712737e-05 0)
(-0.000893257866834 -3.50121555014e-05 0)
(-0.000966217467583 -3.16154852583e-05 0)
(-0.00102328871268 -2.28276026231e-05 0)
(-0.00105491875748 -1.80656133677e-05 0)
(-0.00109083660746 -2.26847958225e-05 0)
(-0.00114713994481 -2.41370894214e-05 0)
(-0.00118960955422 -1.91190050805e-05 0)
(-0.00120926033989 -9.99814470777e-06 0)
(-0.00121857091509 -2.86847424742e-06 0)
(-0.00123775608658 -9.75371989001e-06 0)
(-0.00127527315822 -2.00406516661e-05 0)
(-0.00132521036479 -2.43431182918e-05 0)
(-0.00137129481425 -2.64976223912e-05 0)
(-0.00141752607365 -2.45988279358e-05 0)
(-0.00145997858417 -2.01356774111e-05 0)
(-0.0015044221567 -1.95699120738e-05 0)
(-0.00154554917128 -1.75993650137e-05 0)
(-0.00157635531473 -1.34210253535e-05 0)
(-0.00159858087118 -1.00019549608e-05 0)
(-0.00161160842917 -1.05645630209e-05 0)
(-0.00163064758875 -9.65515736553e-06 0)
(-0.00164949984188 -5.17958116837e-06 0)
(-0.0016585962709 -5.01781410423e-06 0)
(-0.00166230490974 -3.17436365566e-06 0)
(-0.00167827792305 -1.9298592964e-06 0)
(-0.00169492357387 -4.29798210348e-06 0)
(-0.00167214747559 -2.71773905438e-06 0)
(-0.00168125752131 2.64795051195e-07 0)
(-0.00170741757866 -4.23319001369e-06 0)
(-0.00173887061178 -2.6005714792e-05 0)
(-0.00176944740156 -3.37343259986e-05 0)
(-0.00179393648236 -1.01731116823e-05 0)
(-0.00180047960268 3.73499443843e-06 0)
(-0.00179081092616 9.14679512019e-06 0)
(-0.00177453512744 1.48385516512e-05 0)
(-0.00174938123193 1.92945464438e-05 0)
(-0.00171304918408 2.44957009849e-05 0)
(-0.00166843687369 2.6968798986e-05 0)
(-0.00162129536236 1.85603480815e-05 0)
(-0.00158232837087 1.26044820411e-06 0)
(-0.00159790824861 3.1647262288e-06 0)
(-0.00154783845822 4.67710528795e-05 0)
(-0.00147375225146 6.15834232703e-05 0)
(-0.00136209381149 6.87624237384e-05 0)
(-0.00117438782434 8.7064103876e-05 0)
(-0.00100163895181 7.2991076071e-05 0)
(-0.000876157346786 5.74962573966e-05 0)
(-0.00076691202365 6.69750836691e-05 0)
(-0.000576915092257 7.19631709406e-05 0)
(-0.000408979250922 7.44243805763e-05 0)
(-0.000224958043011 9.94571716428e-05 0)
(1.68071704515e-05 0.000130704091078 0)
(0.000267380248574 9.41080780513e-05 0)
(0.00039565537504 5.85583670214e-05 0)
(0.000476134466532 4.20824388954e-05 0)
(0.000540940486963 3.12724325813e-05 0)
(0.000603520315577 2.51980087531e-05 0)
(0.000662967979816 2.07492215969e-05 0)
(0.000702348120739 1.39690623954e-05 0)
(0.00072721964008 5.22700782606e-06 0)
(0.000718612738455 -5.66958122185e-06 0)
(0.000680996388162 -1.95443487937e-05 0)
(0.000656874287965 -3.78766468983e-05 0)
(0.000533296467291 -3.95867212533e-05 0)
(0.000494302565075 -4.2185180954e-05 0)
(0.000343616705433 -2.90061241464e-05 0)
(0.000367913166669 -4.76142508978e-05 0)
(0.000162745399286 -3.73159444221e-05 0)
(0.000121956144695 -7.26198786355e-05 0)
(-2.82593729316e-05 -0.000144953290252 0)
(-0.000121904824746 -0.000166819800812 0)
(-0.000214583657609 -0.000157073628808 0)
(-0.000271153377621 -0.000124913562993 0)
(-0.000407373174988 -0.000124490682495 0)
(-0.000551548266435 -8.75451945341e-05 0)
(-0.00063859611036 -4.75728462078e-05 0)
(-0.000690964804347 -6.94779092284e-05 0)
(-0.00074469518189 -0.000100477266874 0)
(-0.000807367602903 -9.76628171597e-05 0)
(-0.000867332546277 -9.22657379367e-05 0)
(-0.000921247592412 -9.54061322284e-05 0)
(-0.000970369638408 -8.43200213536e-05 0)
(-0.00101458300255 -6.69697598624e-05 0)
(-0.00106102561557 -5.8224633579e-05 0)
(-0.0011060813017 -7.63306488458e-05 0)
(-0.00115124833502 -8.07067060435e-05 0)
(-0.00117946417345 -3.90541517861e-05 0)
(-0.00113407801558 -1.14056820362e-05 0)
(-0.00115533277067 -8.68424204798e-06 0)
(-0.00119229253701 -3.38089192513e-05 0)
(-0.00124715008201 -7.30123600048e-05 0)
(-0.00132530724291 -8.72659163271e-05 0)
(-0.00138789422361 -7.62628746576e-05 0)
(-0.00140073073432 -6.80809006768e-05 0)
(-0.00146258668764 -6.66409442603e-05 0)
(-0.00151470024616 -6.07338512544e-05 0)
(-0.00154809610569 -5.01797220824e-05 0)
(-0.00157453861388 -3.92435691997e-05 0)
(-0.00159693616176 -3.02369177515e-05 0)
(-0.00161639073954 -2.76840490777e-05 0)
(-0.00161161061824 -2.33293159754e-05 0)
(-0.00162810335494 -9.38520012685e-06 0)
(-0.00163019455709 -1.19620635095e-05 0)
(-0.0016203516663 -1.66354981589e-05 0)
(-0.00166631506524 -3.85637637457e-06 0)
(-0.00165873071669 -9.26719299216e-06 0)
(-0.0016424509543 -1.84235387686e-05 0)
(-0.00167102253474 -1.48857370295e-05 0)
(-0.00173056735379 -1.30506389663e-05 0)
(-0.00176886670033 -7.26022760645e-06 0)
(-0.00155753702412 1.74124088449e-08 0)
(-0.00150231098069 3.12032758657e-06 0)
(-0.00151518510807 5.22797104115e-06 0)
(-0.00151535849041 8.04111171421e-06 0)
(-0.00153295911865 1.33477766539e-05 0)
(-0.00155796297481 2.2653130584e-05 0)
(-0.00156215312754 3.42232525116e-05 0)
(-0.00157941038199 4.62423506929e-05 0)
(-0.00157479839829 5.40564332935e-05 0)
(-0.00151586318654 5.18447688282e-05 0)
(-0.00139154783903 5.16124379297e-05 0)
(-0.00127640707583 6.13400626662e-05 0)
(-0.00147182895961 0.000111160225013 0)
(-0.00133149468739 0.000170520553877 0)
(-0.00122836964126 0.000203940061236 0)
(-0.00121351111018 0.00021228952455 0)
(-0.00108651863826 0.000209977239186 0)
(-0.000926817776865 0.000239432690729 0)
(-0.000752000692553 0.000283692457866 0)
(-0.000545994673587 0.000326291203199 0)
(-0.000238733552609 0.00030202758732 0)
(2.42892133205e-06 0.000385489536044 0)
(0.000255791200635 0.0002932980942 0)
(0.000389644200483 0.000185450682246 0)
(0.000453250443524 0.000115630592412 0)
(0.000508265462968 9.04329714791e-05 0)
(0.000595863761409 8.45267345972e-05 0)
(0.000659781122767 6.92332310176e-05 0)
(0.000711197399144 4.46816061038e-05 0)
(0.000728352794272 1.09077804766e-05 0)
(0.000712723810965 -2.65441057557e-05 0)
(0.000658360959429 -5.3839936214e-05 0)
(0.000649678361749 -8.51961572261e-05 0)
(0.000599895663395 -0.000106499282705 0)
(0.000541105585497 -0.00011945023734 0)
(0.000464587464048 -0.000117799861582 0)
(0.000381626809491 -0.000144223531674 0)
(0.000241671479786 -0.000169881846383 0)
(0.000113648532025 -0.000289617412451 0)
(-4.44441116887e-05 -0.000249933259021 0)
(-0.000120524390001 -0.000280235791991 0)
(-0.00018482045579 -0.000267411521009 -9.99053603624e-29)
(-0.000334355803477 -0.000284337919973 9.83861487414e-29)
(-0.000482931589006 -0.000292938904115 9.26358279857e-29)
(-0.000562326397483 -0.000234946224302 -8.60688136225e-29)
(-0.000611900755565 -0.000113358634967 8.82769065558e-29)
(-0.000667365121849 -0.000126147517861 -8.96327155692e-29)
(-0.000725837144083 -0.000159510648169 0)
(-0.000794151708676 -0.000165478984429 0)
(-0.00086207396038 -0.000156152296595 0)
(-0.000918773768462 -0.000144434875283 0)
(-0.00096821237142 -0.00012748840655 0)
(-0.00101053577035 -0.000115141586636 0)
(-0.00105191671753 -0.000102730743641 0)
(-0.00109152499516 -7.48979861039e-05 0)
(-0.000911651216662 -3.49480925841e-05 0)
(-0.000863041696869 -1.29170623689e-05 0)
(-0.000884789927908 -2.18497007588e-05 0)
(-0.00095199773207 -6.8428766646e-05 0)
(-0.00115972826868 -0.000129465262407 0)
(-0.00128504048881 -0.000155855865996 0)
(-0.00129586388602 -0.000144671111753 0)
(-0.00136101639706 -0.00012922041862 0)
(-0.0014302498347 -0.000120376654574 0)
(-0.00147303751866 -0.000113481458009 0)
(-0.00150772824717 -9.71597500083e-05 0)
(-0.00154100766404 -7.89821564329e-05 0)
(-0.00156767303262 -6.24995353805e-05 0)
(-0.00158256378464 -4.985743559e-05 -2.0778483555e-28)
(-0.00160962290197 -3.75686340825e-05 2.02473993986e-28)
(-0.00158829309188 -2.79090311617e-05 0)
(-0.00158974788049 -1.44778654038e-05 0)
(-0.00163943938767 2.03027277204e-06 0)
(-0.00153950390575 -1.61119402574e-05 0)
(-0.00157760723386 -2.41419800736e-05 0)
(-0.00166557746698 -1.05297680634e-05 0)
(-0.00157295114268 -2.83355251454e-05 0)
(-0.00162872128112 -5.80941440072e-05 0)
(-0.00172518705234 -5.14416103989e-05 0)
(-0.00178333951914 6.82428032152e-06 0)
(-0.00179677784237 4.36343112609e-05 0)
(-0.0018030871294 2.44332055684e-05 0)
(-0.00180274796528 1.03156453452e-05 0)
(-0.00179332626047 9.04340843396e-06 0)
(-0.00177783434255 1.32245969234e-05 0)
(-0.00175763106373 2.55913869393e-05 0)
(-0.00173335428305 4.12391103717e-05 0)
(-0.00170555991991 6.06102222842e-05 0)
(-0.00167522873355 8.85975003739e-05 0)
(-0.00164415717447 0.000117592220069 0)
(-0.00160790761482 0.000129894344737 0)
(-0.00155063655274 0.000114384405516 0)
(-0.00144191470858 0.000158107087161 0)
(-0.00131449297573 0.000226908511698 0)
(-0.00129133566162 0.000268195074872 0)
(-0.00121199097964 0.000302245322022 0)
(-0.00107844517597 0.000348451946144 0)
(-0.000916848348316 0.000404959045485 0)
(-0.000733181584129 0.000473126072168 0)
(-0.000525592126042 0.000546463253599 0)
(-0.000296014541402 0.000622997536316 0)
(-3.26523065205e-05 0.000681604765285 0)
(0.000195949098859 0.000469085651165 0)
(0.000323496480505 0.000280951188528 0)
(0.000432743364433 0.000202890370687 0)
(0.000527844886289 0.000171248384447 0)
(0.000594488901545 0.000146729936506 0)
(0.000648711002837 0.000112774338607 0)
(0.000686569507602 6.71172277139e-05 0)
(0.000699533396593 1.55681500307e-05 0)
(0.000699805285685 -3.09597982683e-05 0)
(0.000714190719977 -6.94012306737e-05 0)
(0.000704519626155 -0.000120650147477 0)
(0.000642418444253 -0.000171783720965 0)
(0.000559854933296 -0.000197328764097 0)
(0.000469092778235 -0.000209867849452 0)
(0.000376827811026 -0.000270346879015 0)
(0.000266718578736 -0.000395079750571 0)
(7.11013547081e-05 -0.000411819681138 0)
(-4.59238242128e-05 -0.000384504450737 0)
(-5.11474214738e-05 -0.000246328637351 0)
(-0.00015466341987 -0.000415036611106 0)
(-0.000304620726099 -0.000433207069885 0)
(-0.000407794387827 -0.000360827450102 0)
(-0.000206421717825 -0.000121924657119 0)
(-0.000253677490029 -0.000121706250411 0)
(-0.000510561935428 -0.000246776892819 0)
(-0.000673829688278 -0.000277049192769 0)
(-0.000761743271266 -0.000250209883568 0)
(-0.00084748952322 -0.000229160259504 0)
(-0.000914120758809 -0.000204006328123 0)
(-0.000965208766991 -0.000174957373611 0)
(-0.000989130885762 -0.000122511051617 0)
(-0.000877532357078 -5.13755018575e-05 0)
(-0.000801049257137 -7.01059094953e-06 0)
(-0.000791972542109 -2.24458793549e-08 0)
(-0.000847324179656 -4.41045363201e-05 0)
(-0.000998075899106 -0.000121547951669 0)
(-0.00118600746037 -0.000216008419656 0)
(-0.00122618404685 -0.000239136313441 0)
(-0.00127143843819 -0.000218974872773 0)
(-0.00133377322275 -0.000201412637107 0)
(-0.00138526730558 -0.000188634843804 0)
(-0.00142732510525 -0.00017043916779 0)
(-0.0014636808231 -0.000149357538157 0)
(-0.00149312032966 -0.000128556721852 0)
(-0.00153458894069 -0.000106807017679 0)
(-0.00154696551134 -8.4752257203e-05 0)
(-0.0015856758413 -6.54796036146e-05 0)
(-0.0015644180046 -4.66435861879e-05 0)
(-0.00160656006572 -2.52896513346e-05 0)
(-0.00153871916865 -5.64211597617e-07 0)
(-0.0015430392259 2.86323487854e-06 0)
(-0.00162749444872 -1.20307837294e-05 0)
(-0.0015418756732 -4.08489595145e-05 0)
(-0.0016209532449 -5.32772882326e-05 0)
(-0.00172768283723 -7.10848459547e-05 0)
(-0.00175430636247 -0.000100487129759 0)
(-0.00176346278075 -8.43469473781e-05 0)
(-0.00177756387011 -3.09720478407e-05 0)
(-0.00179152872871 9.53578812673e-06 0)
(-0.00180020014733 1.77368396219e-05 0)
(-0.00180101853827 1.80392475738e-05 0)
(-0.00179336420451 2.30770392778e-05 0)
(-0.00177953496292 3.34164935267e-05 2.15863909049e-28)
(-0.00176100801861 4.89975003301e-05 -2.17309778547e-28)
(-0.00173840057117 6.82785229629e-05 0)
(-0.0017120153607 9.12602925808e-05 0)
(-0.00168201643327 0.000118296275741 0)
(-0.00164765285815 0.000145795924051 0)
(-0.00160410738329 0.000170910625881 0)
(-0.00154423322063 0.000201961537601 0)
(-0.00146862905845 0.000255004217313 0)
(-0.00138983765689 0.000304216654708 0)
(-0.00130811602311 0.000350019308284 0)
(-0.00120598824057 0.000419101856483 0)
(-0.00107089772505 0.000500006745759 3.97905410345e-28)
(-0.000903461795746 0.000586735549559 -4.4428884101e-28)
(-0.000710010110235 0.000677952715913 0)
(-0.000498046530786 0.000763821263951 0)
(-0.000280480283717 0.000834300074389 0)
(-8.48636068584e-05 0.00085026341441 0)
(0.000127427186974 0.000670096526907 0)
(0.000320991783699 0.00044904561592 0)
(0.000426772414976 0.000304558265101 0)
(0.000511514023761 0.000242423696058 0)
(0.000589413253175 0.000204366291006 0)
(0.000651771978791 0.000157590875378 0)
(0.000709753687462 9.95891808907e-05 0)
(0.000750238710825 3.85510715924e-05 0)
(0.000774680637066 -1.95083288263e-05 0)
(0.0007587808694 -9.25453850404e-05 0)
(0.000669040161375 -0.000172269304693 0)
(0.000595849831422 -0.000239078800016 0)
(0.000522731875303 -0.000293537320291 0)
(0.000415665176363 -0.000326435647175 0)
(0.000256242431591 -0.000322638515292 0)
(0.000190348741445 -0.000460215842675 0)
(6.52443637707e-05 -0.000556085480723 0)
(-1.85722147511e-06 -0.000372849394529 0)
(-2.24888070627e-05 -0.000301392268622 0)
(-0.000146866400718 -0.000563668329072 0)
(-0.000258189464043 -0.000515164117191 0)
(-0.000248646473284 -0.000305918723818 0)
(-0.000187504656466 -0.000160416634306 0)
(-0.000326914116676 -0.000279344126263 0)
(-0.00055459883166 -0.000440844814606 0)
(-0.00063253115222 -0.000397954108206 0)
(-0.000728950871773 -0.000345487312122 0)
(-0.000817339004923 -0.000317519635178 0)
(-0.000886180757085 -0.000267697699819 0)
(-0.000859367084482 -0.000155879870685 0)
(-0.000746122239677 -5.42974855214e-05 0)
(-0.000759112529848 -1.47425962462e-05 0)
(-0.000808580399088 -2.33822685633e-05 0)
(-0.000907696564525 -7.77364827667e-05 0)
(-0.00105471715378 -0.000175049043793 0)
(-0.00117073590869 -0.00025787415142 0)
(-0.00117126022081 -0.000269110079997 0)
(-0.00121563875667 -0.00027469142983 0)
(-0.00128517128179 -0.00027695817599 0)
(-0.00133471179385 -0.0002587360867 0)
(-0.00138025331017 -0.000233271573719 0)
(-0.00141861373677 -0.000207646651102 0)
(-0.00144851463596 -0.000184884887796 0)
(-0.00149373752537 -0.00015952953389 0)
(-0.00149804324285 -0.000131704458664 0)
(-0.00155454804688 -0.000105687672475 0)
(-0.00152175290425 -7.65180262907e-05 0)
(-0.00159258675008 -5.05176421542e-05 -1.96576488306e-28)
(-0.00148869707406 -2.17730278786e-05 1.75651519311e-28)
(-0.00156438583987 -7.03505387475e-06 0)
(-0.00161974756428 -2.2375978472e-06 0)
(-0.00154898617656 -2.71431180268e-05 0)
(-0.00166244915121 -7.88807159442e-05 0)
(-0.00170859912345 -0.000122560669945 0)
(-0.00174318685543 -0.000125546530421 0)
(-0.00176049684768 -0.000111969819054 0)
(-0.00176901684713 -8.52892463142e-05 0)
(-0.00178122524858 -4.40547248967e-05 0)
(-0.00179414515952 -7.67876060578e-06 0)
(-0.00180221922156 1.12834768019e-05 0)
(-0.00180313921384 2.21856139716e-05 0)
(-0.00179659960613 3.41371699549e-05 0)
(-0.0017842691403 4.97427625284e-05 0)
(-0.00176721736815 6.94119349535e-05 0)
(-0.00174589464358 9.26568308921e-05 0)
(-0.00172030038455 0.000119697327362 0)
(-0.00168999720792 0.000150925049797 0)
(-0.00165374835383 0.000185526858338 0)
(-0.00160841522369 0.000223543091535 0)
(-0.00155074443211 0.000268412478312 0)
(-0.00148134543199 0.000323216437832 0)
(-0.00140415448728 0.000381769912617 0)
(-0.00131673392024 0.000452415937269 0)
(-0.00120778532999 0.000546697375825 0)
(-0.00106716060399 0.000657874541316 0)
(-0.000892721539063 0.000773250550263 0)
(-0.000693028406277 0.000882241681421 0)
(-0.000482947884891 0.000973639943006 0)
(-0.000282623753209 0.00103615074928 0)
(-0.000127709164366 0.00102009434261 0)
(8.19462873397e-05 0.000897374457971 0)
(0.000313844407615 0.000643750319373 0)
(0.00043856270069 0.000430267882406 0)
(0.000531297494539 0.000331085671119 0)
(0.000607054631956 0.000271988570716 0)
(0.000670732700273 0.000212802742737 0)
(0.000737318544258 0.000148121832955 0)
(0.00080373275253 7.37747371458e-05 0)
(0.000812392947933 -3.16090543678e-05 0)
(0.000720649896782 -0.000148383538328 0)
(0.000652201030883 -0.000244565338955 0)
(0.000587095680835 -0.000328015620981 0)
(0.000502566031339 -0.000404715399155 0)
(0.000373237812785 -0.000423454893007 0)
(0.000253753893474 -0.000436196554392 0)
(0.000175169236239 -0.000601392210684 0)
(4.9777496335e-05 -0.000652990320574 0)
(2.52145957728e-06 -0.000343459904674 0)
(-3.17794267804e-05 -0.000370094952661 0)
(-0.000151876386235 -0.000642109649183 0)
(-0.000202751548842 -0.000502274983836 0)
(-0.000141456202694 -0.000228081152157 0)
(-0.000190513650098 -0.000233497719628 0)
(-0.000446471373667 -0.00049016695036 0)
(-0.00054532523886 -0.000536450151623 0)
(-0.000606817242678 -0.000482785495693 0)
(-0.000686880917255 -0.000435060142239 0)
(-0.000763351497152 -0.000364267623266 0)
(-0.000661665691773 -0.000213405891063 0)
(-0.000588451912543 -9.18305333003e-05 0)
(-0.000639695299384 -5.86636137672e-05 0)
(-0.00070309792528 -7.23873824318e-05 0)
(-0.000837544271629 -0.00013390724719 0)
(-0.0010039573726 -0.000223632648766 0)
(-0.0011205564249 -0.000279896320905 0)
(-0.00109204282999 -0.000271679124097 0)
(-0.0011508166238 -0.00030248615266 0)
(-0.00123496302793 -0.000338315225897 0)
(-0.00128268964101 -0.000331477299215 0)
(-0.00132644759912 -0.000305992328168 0)
(-0.00136412635476 -0.000276739275328 0)
(-0.00141588997397 -0.000249268015048 0)
(-0.00144657264988 -0.000212277479793 0)
(-0.00142763528139 -0.000182248187621 0)
(-0.00151729426447 -0.000158267267597 0)
(-0.00145166693608 -0.000115756712293 0)
(-0.00156173182282 -8.02721538887e-05 0)
(-0.00140963169458 -3.78220613978e-05 0)
(-0.00154583399131 -3.04728705513e-05 0)
(-0.00142485276151 -2.80661544159e-05 0)
(-0.0015348158196 -3.76224845851e-05 0)
(-0.00164966248081 -8.47841829144e-05 0)
(-0.00170309842256 -0.000143616875071 0)
(-0.00173048134073 -0.00015675026869 0)
(-0.00175000691682 -0.000145508633672 0)
(-0.00176314295436 -0.000123287509931 0)
(-0.00177443724695 -9.3566935905e-05 0)
(-0.00178653067711 -5.66939139618e-05 0)
(-0.00179824115944 -2.13251055099e-05 0)
(-0.00180592663822 4.86123054561e-06 0)
(-0.00180703731924 2.46830590597e-05 0)
(-0.00180160788274 4.36740278231e-05 0)
(-0.00179049123924 6.47142086396e-05 0)
(-0.00177467519244 8.88277952219e-05 0)
(-0.00175428482723 0.00011635964051 0)
(-0.00172891085764 0.00014797807578 0)
(-0.0016980188913 0.000184475546184 0)
(-0.00166069813329 0.000226303912228 0)
(-0.00161518219995 0.000274207373232 0)
(-0.00155986640736 0.00032951315203 0)
(-0.00149454578976 0.000392983765236 0)
(-0.00141887588676 0.000466020383324 0)
(-0.00132831097352 0.000558539521519 0)
(-0.00121386760977 0.000678400355644 0)
(-0.00106910974713 0.000818252893529 0)
(-0.000895311275618 0.00096181116361 0)
(-0.000696731566468 0.0010843258355 0)
(-0.000497387750853 0.00117092859243 0)
(-0.000320142589677 0.00118817951003 0)
(-0.000147587062688 0.00106442061077 0)
(4.81098183299e-05 0.00117876025415 0)
(0.000269999837487 0.000816423796217 0)
(0.000409298313388 0.000550362872639 0)
(0.000530821425449 0.000424633504919 0)
(0.00063217537269 0.000347417688259 0)
(0.000710737827805 0.00027850884699 0)
(0.000806403935378 0.000208985123219 0)
(0.000868966129064 8.92999201535e-05 0)
(0.000797110764973 -7.62187174758e-05 0)
(0.000715932631904 -0.000209847610409 0)
(0.000669850756257 -0.000318063789882 0)
(0.000593708792557 -0.000419377930835 0)
(0.000509864405923 -0.000514516402869 0)
(0.000371423459938 -0.00051274311544 0)
(0.000264710331009 -0.000540969748286 0)
(0.00018073140902 -0.000716120219234 0)
(5.53615537576e-05 -0.000751726646149 0)
(-1.19194708137e-05 -0.000372829001954 0)
(-8.39680029261e-05 -0.000495850175611 0)
(-0.000207593905222 -0.000700172488402 0)
(-0.000221044731035 -0.00062923330199 0)
(-0.000132294226148 -0.000281895863636 0)
(-0.000291601617244 -0.000434133732544 0)
(-0.000488016128334 -0.000622618785119 0)
(-0.000525784674527 -0.000598007327119 0)
(-0.000587070923067 -0.000542774432454 0)
(-0.000609853442609 -0.000476204290138 0)
(-0.000716852576896 -0.000379415102745 4.03881602937e-28)
(-0.000507513241298 -0.000146305983963 -2.11685469042e-28)
(-0.000595179321641 -0.000117467687668 0)
(-0.000629427869791 -0.000122266324042 0)
(-0.000741674073026 -0.000183970843409 0)
(-0.000922971481427 -0.000295873149724 0)
(-0.00105173952386 -0.000342351592427 0)
(-0.000992627173104 -0.0002867296616 0)
(-0.00106034642641 -0.000311555754015 0)
(-0.0011748027721 -0.000381145788811 0)
(-0.00122220911443 -0.000397731802947 0)
(-0.00127380161215 -0.000379972612281 0)
(-0.00132002741234 -0.000351386798596 0)
(-0.00136143593254 -0.000316127242134 0)
(-0.00138065330848 -0.000272305539665 0)
(-0.00137336528113 -0.000224475161381 0)
(-0.00145060852613 -0.000201923158396 0)
(-0.00136379109911 -0.000168629723805 0)
(-0.00150889265876 -0.000130824119951 0)
(-0.00134504068934 -5.53306068939e-05 0)
(-0.00148832848568 -4.44758283976e-05 0)
(-0.00139110446084 -5.23301182472e-05 1.6366668021e-28)
(-0.00151264690453 -5.93292664158e-05 -1.80443516909e-28)
(-0.00153497883618 -0.000115072080477 0)
(-0.00169149323393 -0.000175510656116 0)
(-0.00172045442838 -0.000188004142276 0)
(-0.00173719658505 -0.00017877101944 0)
(-0.00175209733819 -0.000160018778173 0)
(-0.00176726973272 -0.000134875472491 0)
(-0.00178098709095 -0.000104225264224 0)
(-0.00179315601002 -6.8607902722e-05 0)
(-0.00180427881518 -3.26165343607e-05 0)
(-0.00181166325639 -1.06265761294e-06 0)
(-0.00181307768106 2.61247518624e-05 0)
(-0.00180843484711 5.1822503914e-05 0)
(-0.0017983754678 7.84424260691e-05 0)
(-0.00178348237825 0.000107407223571 0)
(-0.00176349848757 0.000139742169957 0)
(-0.00173785356607 0.000176511756829 0)
(-0.00170626880696 0.000218763281935 0)
(-0.00166840415139 0.000267388260957 0)
(-0.00162340909952 0.000323240494042 0)
(-0.00157036711925 0.000387273976812 0)
(-0.00150824611979 0.000461346824824 0)
(-0.00143457435721 0.000550864300859 0)
(-0.00134393515333 0.000665842842245 0)
(-0.00122911134719 0.000810989357421 0)
(-0.0010857427532 0.000976743010208 0)
(-0.000914455279564 0.00114218271352 0)
(-0.000724470824286 0.00127783653676 0)
(-0.000538921855244 0.00134457164137 0)
(-0.000379454173529 0.0013432015519 0)
(-0.000213740922093 0.00137010427708 0)
(-4.49541334852e-05 0.00135087370018 0)
(0.000194561507886 0.000992987242619 0)
(0.000380662793926 0.000683403909371 0)
(0.000555210234949 0.000563801768901 0)
(0.000702724271365 0.000469591903241 0)
(0.000812516850023 0.000375629005397 0)
(0.000899644203016 0.000255335846024 0)
(0.000896187295912 6.22528144243e-05 0)
(0.00080389428362 -0.000128740423759 0)
(0.000760499057868 -0.000271261654566 0)
(0.000702230537493 -0.000392759240463 0)
(0.000627795441789 -0.000514754826518 0)
(0.000524638842936 -0.000594132849807 0)
(0.000416311722929 -0.000631052572892 0)
(0.000282953169823 -0.000652068988222 0)
(0.000190206427095 -0.000820946517093 0)
(6.6092285446e-05 -0.000882734127701 0)
(-2.58450859521e-05 -0.000436399352783 0)
(-0.000128125310571 -0.00062814570818 0)
(-0.00023906238283 -0.000718727488398 0)
(-0.000129680109168 -0.00038166994252 0)
(-0.000138549178039 -0.000355581600544 0)
(-0.00036714046917 -0.000646549796363 0)
(-0.000452044394994 -0.000685040011941 0)
(-0.000513721006029 -0.000658630063704 0)
(-0.000531638934267 -0.000568521426189 0)
(-0.000589818048606 -0.000503954097538 0)
(-0.00044256863723 -0.000258119055591 0)
(-0.000512867269266 -0.000174812575376 0)
(-0.00058120423205 -0.00017157017192 0)
(-0.000628832162432 -0.000205257434613 0)
(-0.000818496012913 -0.000333279310036 0)
(-0.000973695094782 -0.000414649763055 0)
(-0.000908530598418 -0.000339975586916 0)
(-0.000956846624187 -0.000328323724515 0)
(-0.00108778579077 -0.000405987858648 0)
(-0.00116702751779 -0.000452305685408 0)
(-0.00120533450591 -0.00044733651141 0)
(-0.00124623571247 -0.000425095996155 0)
(-0.00130484932044 -0.000400856316393 0)
(-0.00134267989736 -0.000357907300188 0)
(-0.00139657101716 -0.000291738689802 0)
(-0.00134133941901 -0.00024614532139 0)
(-0.00144677411307 -0.000214056736063 0)
(-0.00139877465228 -0.000166942807144 0)
(-0.0013509686912 -0.000118827206674 0)
(-0.00137906396418 -8.67391533208e-05 0)
(-0.00153882316325 -7.74174706952e-05 0)
(-0.00146007377456 -6.27710801574e-05 0)
(-0.0014513904473 -0.00012273928509 0)
(-0.00167049907872 -0.000211456738921 0)
(-0.00169695241632 -0.000239855454948 0)
(-0.00172228311551 -0.000219878506506 0)
(-0.00174027217515 -0.000197158889985 0)
(-0.00175561193532 -0.000174705985365 0)
(-0.00177232867527 -0.00014852431174 0)
(-0.00178820764478 -0.000116872745523 0)
(-0.00180129906543 -8.05843877253e-05 0)
(-0.00181203095034 -4.27986003922e-05 0)
(-0.00181934077245 -6.67411622937e-06 0)
(-0.00182130521935 2.68692747001e-05 0)
(-0.00181743164162 5.89428690421e-05 2.09003260207e-28)
(-0.00180820232449 9.12912761096e-05 -2.08386461492e-28)
(-0.00179378970346 0.000125596556549 0)
(-0.00177362743116 0.000163317561125 0)
(-0.00174718721206 0.00020563958946 0)
(-0.00171466069447 0.000253593325744 0)
(-0.00167631789671 0.000308199522309 0)
(-0.00163202785478 0.000370602378856 0)
(-0.00158135911392 0.000442530388926 0)
(-0.00152285395958 0.000527688293027 0)
(-0.00145303205628 0.000633458766246 0)
(-0.0013665241399 0.000769044340998 0)
(-0.00125757683649 0.000937160308728 0)
(-0.00112211471602 0.00112828401676 0)
(-0.000958413500204 0.00132022602277 0)
(-0.000771681253916 0.00146388350256 0)
(-0.000591084221525 0.00150489784599 0)
(-0.000442811293483 0.00150443152797 0)
(-0.000298295099401 0.00150545638114 0)
(-0.000154228766671 0.00148410702115 0)
(9.16055853879e-05 0.00140099989854 0)
(0.000359470934774 0.000881220228037 0)
(0.000588129633238 0.000738640040482 0)
(0.000782665340194 0.000611974908209 0)
(0.000902566027537 0.0004584305264 0)
(0.000962395679006 0.000262285334806 0)
(0.000926171325499 2.07886824885e-05 0)
(0.000861130500434 -0.000179078035733 0)
(0.000821306392069 -0.000333079406695 0)
(0.000752131135928 -0.000471486231402 0)
(0.000676261617881 -0.000602408469587 0)
(0.000568741692947 -0.000682067435062 0)
(0.0004729285703 -0.000758859207864 0)
(0.000321010753694 -0.000799916566864 0)
(0.000194417614876 -0.000935195561068 0)
(6.86856303545e-05 -0.00103443541752 0)
(-3.82114784454e-05 -0.00052097226534 0)
(-0.00015493721388 -0.000744840604663 0)
(-0.00019932902633 -0.000726690803161 0)
(-0.000125150184495 -0.000418089012588 0)
(-0.000208505205756 -0.000488196830393 0)
(-0.000397236638569 -0.000754938314431 0)
(-0.000413728791986 -0.000741659083185 0)
(-0.000501992271704 -0.000713022937865 0)
(-0.000443234873124 -0.000541408180282 0)
(-0.00060738221855 -0.000564008112773 0)
(-0.000433179984929 -0.000276884330054 0)
(-0.000531974488267 -0.00024000092186 0)
(-0.000577762023097 -0.00023979779974 0)
(-0.000688730707824 -0.000331736238747 0)
(-0.000872515583946 -0.000480046055343 0)
(-0.000958529666351 -0.000471964654926 0)
(-0.000885239832921 -0.000367446526044 0)
(-0.000979429554785 -0.000412552849434 0)
(-0.00108636595996 -0.00049157598196 0)
(-0.00114471853465 -0.00051083358037 0)
(-0.00119572940634 -0.000494672150289 0)
(-0.00122055941132 -0.000462913064982 0)
(-0.00126878645128 -0.000434976926268 0)
(-0.00127646759209 -0.000385822671071 0)
(-0.0012655923193 -0.000294933383942 0)
(-0.00138492532527 -0.000266602708592 0)
(-0.00124705874984 -0.000222880135836 0)
(-0.00148397018107 -0.000186005116707 0)
(-0.00132124628229 -0.00013905190209 0)
(-0.0015383055053 -0.000141452231134 0)
(-0.00136801102855 -0.000102504040607 0)
(-0.001574571525 -0.000112096905416 0)
(-0.00162128042143 -0.00020060749554 2.07628421731e-28)
(-0.00168116348501 -0.000277043589627 -2.21939723238e-28)
(-0.00170190184925 -0.000271566394757 0)
(-0.00172312837658 -0.000244335176293 0)
(-0.00174401957418 -0.000216955563254 0)
(-0.00176123157105 -0.000191417884286 0)
(-0.0017785439013 -0.000163908144025 0)
(-0.00179547215474 -0.000131163905018 0)
(-0.00181006476146 -9.32645474397e-05 0)
(-0.00182154881206 -5.27982825447e-05 0)
(-0.00182916618367 -1.23428219469e-05 0)
(-0.00183180072027 2.69307248093e-05 0)
(-0.00182895036817 6.52331140934e-05 0)
(-0.00182040060797 0.000103682141513 0)
(-0.00180587514784 0.000143932742118 0)
(-0.00178483989612 0.000187621997241 0)
(-0.00175704124783 0.000235811483687 0)
(-0.00172306220565 0.000289220346686 0)
(-0.00168384917452 0.000348859204785 0)
(-0.00164014476155 0.000416423604604 0)
(-0.00159220553671 0.000494944156115 0)
(-0.00153863094687 0.000589891364653 0)
(-0.00147567964125 0.000709529721019 0)
(-0.0013981798076 0.000862080120616 0)
(-0.00130062617349 0.00105011649218 0)
(-0.00117770596322 0.00126677042907 0)
(-0.00102658535199 0.00148991457787 0)
(-0.000852427397609 0.0016474966171 0)
(-0.000693127008487 0.00165763323519 0)
(-0.000565113585472 0.00163385597324 0)
(-0.000420111271157 0.00165372708242 0)
(-0.000233465303474 0.00167219735782 0)
(-1.46015295143e-05 0.00160555142845 0)
(0.000333976310246 0.00128176839658 0)
(0.000626343325493 0.000892722229368 0)