/*--------------------------------*- C++ -*----------------------------------*\
| =========                 |                                                 |
| \\      /  F ield         | OpenFOAM: The Open Source CFD Toolbox           |
|  \\    /   O peration     | Version:  v1806                                 |
|   \\  /    A nd           | Web:      www.OpenFOAM.com                      |
|    \\/     M anipulation  |                                                 |
\*---------------------------------------------------------------------------*/
FoamFile
{
    version     2.0;
    format      ascii;
    class       surfaceScalarField;
    location    "923";
    object      phi;
}
// * * * * * * * * * * * * * * * * * * * * * * * * * * * * * * * * * * * * * //

dimensions      [0 3 -1 0 0 0 0];
oriented        oriented;


internalField   nonuniform List<scalar> 
12640
(
-2.57076060488e-07
2.57366970183e-07
-4.81155371593e-07
2.24339397718e-07
-6.69016530404e-07
1.88057536428e-07
-8.23443723698e-07
1.54589395202e-07
-9.38165595394e-07
1.14858334513e-07
-1.01323325e-06
7.52012202014e-08
-1.06825063219e-06
5.51429955272e-08
-1.14372251841e-06
7.55852446059e-08
-1.24056522788e-06
9.69473270825e-08
-1.330870674e-06
9.03973481846e-08
-1.41258363557e-06
8.17906499824e-08
-1.49335939962e-06
8.08454364367e-08
-1.56428459553e-06
7.09884800055e-08
-1.62243176861e-06
5.82058617611e-08
-1.6750491544e-06
5.26720682455e-08
-1.73290216535e-06
5.7904828975e-08
-1.7916605742e-06
5.88069592168e-08
-1.84149978945e-06
4.98848274468e-08
-1.88178759103e-06
4.0329453541e-08
-1.9199825133e-06
3.82340451159e-08
-1.96748868389e-06
4.75430777849e-08
-2.02359963697e-06
5.61458371465e-08
-2.07905170437e-06
5.54843933751e-08
-2.12963942281e-06
5.06176310852e-08
-2.17469085366e-06
4.50788747074e-08
-2.2147483657e-06
4.00831349736e-08
-2.2512812591e-06
3.65567965652e-08
-2.28369494239e-06
3.24362675287e-08
-2.31144636907e-06
2.77725236795e-08
-2.33548803472e-06
2.40616302898e-08
-2.35766748781e-06
2.2198069844e-08
-2.37735816958e-06
1.97085054294e-08
-2.39356234779e-06
1.62212301987e-08
-2.40886393512e-06
1.53179071292e-08
-2.42362614283e-06
1.47775661049e-08
-2.43686970286e-06
1.32583615738e-08
-2.44918983431e-06
1.23338938072e-08
-2.45945020285e-06
1.02732442662e-08
-2.46590959808e-06
6.47138081023e-09
-2.46843966223e-06
2.541651947e-09
-2.46889561025e-06
4.6673637024e-10
-2.46581249641e-06
-3.072881052e-09
-2.45598845045e-06
-9.81470510818e-09
-2.44099957157e-06
-1.49799528797e-08
-2.42256976578e-06
-1.84216000969e-08
-2.40019269736e-06
-2.23689938912e-08
-2.37331239214e-06
-2.68728312131e-08
-2.34110549123e-06
-3.21994406245e-08
-2.30338454942e-06
-3.77140409249e-08
-2.26204071271e-06
-4.13368588083e-08
-2.21928153907e-06
-4.2752868423e-08
-2.17202374375e-06
-4.72512381225e-08
-2.11361954695e-06
-5.83979061311e-08
-2.04511772982e-06
-6.84949788757e-08
-1.96660914148e-06
-7.85020626754e-08
-1.8763309478e-06
-9.02712413591e-08
-1.78168677612e-06
-9.46379181069e-08
-1.68455275833e-06
-9.71276907595e-08
-1.57721070297e-06
-1.07336442292e-07
-1.45940768285e-06
-1.17797969865e-07
-1.33573954793e-06
-1.2366340971e-07
-1.19611199432e-06
-1.39620884893e-07
-1.01946438832e-06
-1.76636447231e-07
-8.16487256556e-07
-2.02961554628e-07
-6.43903526569e-07
-1.72571140557e-07
-5.21428540537e-07
-1.22465474355e-07
-4.22854645885e-07
-9.85658939525e-08
-3.3346800263e-07
-8.9378532824e-08
-2.49397109431e-07
-8.40622352894e-08
-1.70070346858e-07
-7.9317241544e-08
-1.0089190055e-07
-6.91707143558e-08
-4.7028913007e-08
-5.3854468252e-08
-9.21353746197e-09
-3.78094734003e-08
1.61341913726e-08
-2.53412194947e-08
2.95403869918e-08
-1.3400548885e-08
3.47225816228e-08
-5.1788972261e-09
3.52187027083e-08
-4.93989217737e-10
2.89401199739e-08
6.28219527824e-09
1.88782554516e-08
1.0059067216e-08
1.8879374508e-08
-1.37621796143e-07
3.95188682292e-07
-3.1821978442e-07
4.05130263934e-07
-4.88812380747e-07
3.58814999681e-07
-6.58305472755e-07
3.24213649244e-07
-8.56977760485e-07
3.13665657286e-07
-1.00204562495e-06
2.20395046181e-07
-1.0856187611e-06
1.38840236677e-07
-1.16505446304e-06
1.55140272411e-07
-1.25200348754e-06
1.84003905205e-07
-1.34323958561e-06
1.81725845414e-07
-1.42847235179e-06
1.67105605393e-07
-1.49995530597e-06
1.52398948299e-07
-1.5630832856e-06
1.34181929911e-07
-1.62116005285e-06
1.16343336775e-07
-1.67596942864e-06
1.07540690628e-07
-1.73497997434e-06
1.16970189984e-07
-1.79053392873e-06
1.14411770168e-07
-1.82653301299e-06
8.59282621039e-08
-1.85867304554e-06
7.25112517324e-08
-1.90324818876e-06
8.28479359569e-08
-1.95953576337e-06
1.03869129372e-07
-2.02331932115e-06
1.19964858494e-07
-2.0825992976e-06
1.14798345051e-07
-2.1305967849e-06
9.86453605283e-08
-2.1736428846e-06
8.81538751857e-08
-2.21575306346e-06
8.22191704715e-08
-2.25278037708e-06
7.36093582797e-08
-2.28428126794e-06
6.39597932952e-08
-2.31198725484e-06
5.5500842256e-08
-2.33648589911e-06
4.85802093672e-08
-2.35768295292e-06
4.34150475325e-08
-2.37597292257e-06
3.80163533791e-08
-2.39091121316e-06
3.11775507576e-08
-2.40541091635e-06
2.98338045101e-08
-2.42195747823e-06
3.13406634755e-08
-2.43587995895e-06
2.7195235384e-08
-2.44740071622e-06
2.38692941693e-08
-2.45939713807e-06
2.22822366732e-08
-2.47014655801e-06
1.72338716641e-08
-2.4746844825e-06
7.09080920798e-09
-2.46536096044e-06
-8.84490902983e-09
-2.44727862432e-06
-2.11454057596e-08
-2.43226820365e-06
-2.48147798805e-08
-2.41946518702e-06
-2.77745276211e-08
-2.40447384176e-06
-3.34036985207e-08
-2.38615354216e-06
-4.06817352105e-08
-2.36329302391e-06
-4.97247983536e-08
-2.33579700259e-06
-5.96884932581e-08
-2.30302093289e-06
-7.04821186363e-08
-2.2616434782e-06
-8.27078516492e-08
-2.20919632851e-06
-9.51925002983e-08
-2.15214208246e-06
-1.0429935969e-07
-2.10027686662e-06
-1.10255788632e-07
-2.04117690862e-06
-1.27588720091e-07
-1.96638301455e-06
-1.53288710834e-07
-1.8856945139e-06
-1.70953783474e-07
-1.79755344497e-06
-1.8277220488e-07
-1.69752960062e-06
-1.97146012445e-07
-1.58894022957e-06
-2.15920006899e-07
-1.46914015913e-06
-2.37593563412e-07
-1.32896941034e-06
-2.63827254685e-07
-1.17377772835e-06
-2.94803370728e-07
-9.95707739798e-07
-3.54692221824e-07
-8.01010961648e-07
-3.97643730018e-07
-6.22854829075e-07
-3.50714900268e-07
-4.819303644e-07
-2.63381426831e-07
-3.8290452421e-07
-1.97584545951e-07
-3.03227008204e-07
-1.69049227279e-07
-2.2619093628e-07
-1.61091072444e-07
-1.50623356337e-07
-1.54878338406e-07
-8.37161150093e-08
-1.36070223232e-07
-3.20637587091e-08
-1.05502222741e-07
4.02091840171e-09
-7.38863200026e-08
2.77893019521e-08
-4.91040154172e-08
4.20724940592e-08
-2.76785968393e-08
4.8741893859e-08
-1.18428486552e-08
4.78264086921e-08
4.25393077332e-10
4.00936141908e-08
1.40148110346e-08
2.30765629463e-08
2.70795628282e-08
4.19536911359e-08
-1.73137594881e-07
5.68445810644e-07
-2.68620877655e-07
5.00771954053e-07
-4.67164778435e-07
5.5751197668e-07
-6.86884989839e-07
5.44077315464e-07
-8.86676854682e-07
5.13582393855e-07
-9.94835567616e-07
3.28660691841e-07
-1.05140286979e-06
1.95516901436e-07
-1.13923391897e-06
2.43083706318e-07
-1.23963796698e-06
2.84510789845e-07
-1.33622214259e-06
2.78401509683e-07
-1.42474100763e-06
2.55702667212e-07
-1.49968876977e-06
2.27417970742e-07
-1.56347060518e-06
1.98030397368e-07
-1.62314034993e-06
1.76076875195e-07
-1.6715972953e-06
1.56057694608e-07
-1.67627402837e-06
1.21701010021e-07
-1.65545449144e-06
9.3637609701e-08
-1.67310229282e-06
1.03617042133e-07
-1.74439879882e-06
1.43846821593e-07
-1.85568908192e-06
1.94177355053e-07
-1.96190444133e-06
2.10122854801e-07
-2.02954233739e-06
1.87639205514e-07
-2.07977615806e-06
1.65065337463e-07
-2.13071791413e-06
1.49618032889e-07
-2.1777609776e-06
1.35225200879e-07
-2.21734602596e-06
1.2183077613e-07
-2.25236979685e-06
1.08657570974e-07
-2.28403637385e-06
9.56496686313e-08
-2.31188769084e-06
8.33737330942e-08
-2.33651820146e-06
7.32314665493e-08
-2.35678318766e-06
6.36992734018e-08
-2.37442294597e-06
5.56745774541e-08
-2.39131610804e-06
4.8088177877e-08
-2.40211909148e-06
4.06537047017e-08
-2.41481649216e-06
4.40535560348e-08
-2.43449514245e-06
4.68889431901e-08
-2.44802739393e-06
3.74154065485e-08
-2.45727619031e-06
3.15443469245e-08
-2.4685641494e-06
2.85340918541e-08
-2.47573379967e-06
1.42726053841e-08
-2.47634927382e-06
-8.21831740807e-09
-2.47112978704e-06
-2.63541101313e-08
-2.46004724411e-06
-3.58876481857e-08
-2.44479600873e-06
-4.30162151787e-08
-2.42608663335e-06
-5.21043840241e-08
-2.40337376189e-06
-6.33858569682e-08
-2.3765871922e-06
-7.65033670942e-08
-2.3453440612e-06
-9.09234947912e-08
-2.3092247664e-06
-1.06593953971e-07
-2.26839411973e-06
-1.23530792888e-07
-2.22310275259e-06
-1.40476720587e-07
-2.17128353345e-06
-1.56111083506e-07
-2.1078821634e-06
-1.73650069674e-07
-2.03665097617e-06
-1.9881240992e-07
-1.96392249411e-06
-2.26010342659e-07
-1.88475172289e-06
-2.50117620764e-07
-1.79316225484e-06
-2.74355239383e-07
-1.68918443765e-06
-3.01117453602e-07
-1.57379102277e-06
-3.31307306115e-07
-1.44570900182e-06
-3.65668314534e-07
-1.30343689282e-06
-4.06090074768e-07
-1.13326282887e-06
-4.64964621536e-07
-9.33083847201e-07
-5.54854938896e-07
-7.25405527376e-07
-6.05307679263e-07
-5.53915916139e-07
-5.22193321695e-07
-4.40028374141e-07
-3.77261825522e-07
-3.42884738338e-07
-2.94722746628e-07
-2.55321131984e-07
-2.56608318965e-07
-1.77569652876e-07
-2.38838611343e-07
-1.07251202338e-07
-2.25191621539e-07
-4.75581588154e-08
-1.95760709512e-07
-1.25623672119e-09
-1.51794521342e-07
3.22731800176e-08
-1.07411076866e-07
5.09747144664e-08
-6.77976673003e-08
6.01397132607e-08
-3.68370136089e-08
6.28305904044e-08
-1.45290490814e-08
5.94703383863e-08
3.78896485938e-09
4.96288610717e-08
2.38609592337e-08
2.39349203648e-08
5.27701982608e-08
6.58913816682e-08
-1.25931860986e-07
6.94532617068e-07
-1.76590529738e-07
5.51535314816e-07
-3.96737693548e-07
7.7779491894e-07
-5.79824407948e-07
7.27297698191e-07
-6.0856419201e-07
5.42425133326e-07
-5.60543458187e-07
2.80697483481e-07
-7.5446063383e-07
3.89508065441e-07
-1.03000904485e-06
5.18733802885e-07
-1.20132620365e-06
4.55926439506e-07
-1.31781468016e-06
3.94977030107e-07
-1.41718476682e-06
3.55151224128e-07
-1.50119548144e-06
3.11499693786e-07
-1.5623069807e-06
2.59208056476e-07
-1.57474555583e-06
1.88576752297e-07
-1.54819774046e-06
1.29565013981e-07
-1.54448764728e-06
1.18039380703e-07
-1.6006426325e-06
1.49836652135e-07
-1.7099426875e-06
2.12959123174e-07
-1.83323525616e-06
2.67181341704e-07
-1.91892609367e-06
2.79908983009e-07
-1.97390979251e-06
2.65145157064e-07
-2.02995672059e-06
2.43721931476e-07
-2.08517250254e-06
2.2031441745e-07
-2.13367055813e-06
1.98146572409e-07
-2.17690591284e-06
1.7848885075e-07
-2.21576999252e-06
1.60720907123e-07
-2.25158288884e-06
1.44494982808e-07
-2.28369146762e-06
1.27781010603e-07
-2.31207928626e-06
1.11783210458e-07
-2.33560292077e-06
9.677539971e-08
-2.35697889967e-06
8.50946094476e-08
-2.37300427807e-06
7.17181744133e-08
-2.38466112537e-06
5.97622994345e-08
-2.40447747502e-06
6.04863565671e-08
-2.42172287158e-06
6.13146490015e-08
-2.43615801523e-06
6.13386500854e-08
-2.45778014637e-06
5.90514956779e-08
-2.47427514197e-06
4.80524306395e-08
-2.47938589525e-06
3.36574950791e-08
-2.47948976878e-06
1.43882348688e-08
-2.47828802786e-06
-9.40877919867e-09
-2.47399098692e-06
-3.06407271229e-08
-2.46422034e-06
-4.5648184106e-08
-2.44933225621e-06
-5.78948498927e-08
-2.43025513731e-06
-7.11722061005e-08
-2.40711434894e-06
-8.65179012183e-08
-2.37982651295e-06
-1.0378254065e-07
-2.34811711954e-06
-1.22624726388e-07
-2.31174473579e-06
-1.42958168008e-07
-2.27062178313e-06
-1.64645926073e-07
-2.22405317029e-06
-1.87037280316e-07
-2.17001850088e-06
-2.10137840853e-07
-2.10729783732e-06
-2.36362496733e-07
-2.03850213564e-06
-2.67600322585e-07
-1.96369808516e-06
-3.00806664954e-07
-1.87939948257e-06
-3.3440883301e-07
-1.78308840501e-06
-3.7065899608e-07
-1.67319745382e-06
-4.11000776677e-07
-1.54813713866e-06
-4.56359205151e-07
-1.40511175099e-06
-5.08683395353e-07
-1.23858388906e-06
-5.72604564247e-07
-1.04839098408e-06
-6.55140980339e-07
-8.64498602192e-07
-7.38732664469e-07
-6.94994880231e-07
-7.74797234963e-07
-5.1998882186e-07
-6.97191139657e-07
-3.79472440861e-07
-5.17772146658e-07
-2.75609108018e-07
-3.98582419955e-07
-1.91635091634e-07
-3.4057986388e-07
-1.20906062985e-07
-3.09565052584e-07
-5.67943162708e-08
-2.89302359513e-07
2.23181129671e-09
-2.54776598917e-07
4.52694634913e-08
-1.94829935595e-07
6.46547717283e-08
-1.26784897251e-07
7.1683378675e-08
-7.48213725318e-08
7.54067816706e-08
-4.05553385479e-08
7.27542992976e-08
-1.18717623723e-08
5.90754633998e-08
1.74711773167e-08
4.26880739489e-08
4.02470943949e-08
2.30492198975e-08
7.24133095963e-08
8.89367124517e-08
-3.27438016096e-08
7.27324668949e-07
-1.56164102834e-07
6.75034040176e-07
-3.35301679799e-07
9.57038592075e-07
-4.7837557758e-07
8.70467365367e-07
-4.74100167618e-07
5.38223561048e-07
-5.86532988127e-07
3.93189269212e-07
-8.18534594353e-07
6.21591859116e-07
-9.94961114417e-07
6.95252528493e-07
-1.14541359263e-06
6.06468923887e-07
-1.27759120772e-06
5.272362642e-07
-1.39482981377e-06
4.72465259808e-07
-1.46568890541e-06
3.82425784739e-07
-1.46306518109e-06
2.56643906389e-07
-1.45153175364e-06
1.77097051935e-07
-1.49607839858e-06
1.7416197997e-07
-1.59054011238e-06
2.12549674608e-07
-1.70936667417e-06
2.68710527432e-07
-1.80975448555e-06
3.13392807827e-07
-1.87052430926e-06
3.27994640437e-07
-1.91771618807e-06
3.27141768385e-07
-1.97381010018e-06
3.21277442174e-07
-2.03190318154e-06
3.01850792235e-07
-2.0854941248e-06
2.73938202365e-07
-2.13320917281e-06
2.45891903131e-07
-2.17578503599e-06
2.21092603813e-07
-2.21525187085e-06
2.00213699449e-07
-2.25031250987e-06
1.79579593307e-07
-2.28302087494e-06
1.60511995033e-07
-2.31038715991e-06
1.39170845336e-07
-2.33364965346e-06
1.20058171001e-07
-2.3498159702e-06
1.01279869947e-07
-2.36878524618e-06
9.07052305089e-08
-2.39497325805e-06
8.59671682919e-08
-2.41204268116e-06
7.75719150947e-08
-2.43151889146e-06
8.08060789814e-08
-2.45431391593e-06
8.41482778296e-08
-2.47005064277e-06
7.48020335381e-08
-2.47983056487e-06
5.78455519188e-08
-2.48402308592e-06
3.78624087162e-08
-2.48445326718e-06
1.48302414602e-08
-2.48307655458e-06
-1.07743815525e-08
-2.47879694394e-06
-3.49096734211e-08
-2.46954851248e-06
-5.48865088729e-08
-2.45500919942e-06
-7.24243156373e-08
-2.43582053884e-06
-9.03514216148e-08
-2.41233322846e-06
-1.09995937645e-07
-2.3845593602e-06
-1.31547505149e-07
-2.35230756982e-06
-1.54867723939e-07
-2.31534351404e-06
-1.79913672552e-07
-2.27333445229e-06
-2.06646298334e-07
-2.22539516205e-06
-2.34967841067e-07
-2.17012988077e-06
-2.65394000756e-07
-2.10710043816e-06
-2.99382939045e-07
-2.03717906344e-06
-3.37512618161e-07
-1.9593082962e-06
-3.786684991e-07
-1.87035903351e-06
-4.23349276686e-07
-1.76720558125e-06
-4.73802845329e-07
-1.64665355169e-06
-5.31542541871e-07
-1.50520413478e-06
-5.97796681255e-07
-1.33952603323e-06
-6.7434765998e-07
-1.15052152085e-06
-7.61592504753e-07
-9.56920778123e-07
-8.48726656605e-07
-7.90035827881e-07
-9.05601305655e-07
-6.28496837453e-07
-9.36326807642e-07
-4.76845793292e-07
-8.48833141604e-07
-3.37640055999e-07
-6.56974156911e-07
-2.17361853816e-07
-5.18858413682e-07
-1.22004741344e-07
-4.35935793329e-07
-4.75601333805e-08
-3.84009038227e-07
1.72572262497e-08
-3.54110939609e-07
6.96993191655e-08
-3.07219058225e-07
9.05353986434e-08
-2.156506797e-07
9.34639968907e-08
-1.29712438282e-07
9.67468043992e-08
-7.8097926534e-08
9.63582899983e-08
-4.01636217626e-08
8.58091579924e-08
-1.32071790529e-09
6.92596897403e-08
3.40204826395e-08
5.0064343251e-08
5.94441417559e-08
2.44735272462e-08
9.79965849741e-08
1.13411422075e-07
-1.8999876239e-08
7.46403111868e-07
-1.83857926016e-07
8.39961682852e-07
-2.90422649622e-07
1.06368630238e-06
-3.64931949568e-07
9.4505447536e-07
-3.72211965939e-07
5.45554196847e-07
-6.24778796315e-07
6.45823806194e-07
-8.51432583679e-07
8.48330767127e-07
-9.68836923453e-07
8.12741257794e-07
-1.09953605535e-06
7.37245168288e-07
-1.22221465652e-06
6.49994608192e-07
-1.29428497574e-06
5.44605101318e-07
-1.272440254e-06
3.60637268172e-07
-1.27736705885e-06
2.61619652964e-07
-1.35659353646e-06
2.56371370835e-07
-1.47862148801e-06
2.96239421382e-07
-1.62469869155e-06
3.58677590915e-07
-1.74459037485e-06
3.8865165756e-07
-1.81106262282e-06
3.79911625451e-07
-1.85803025227e-06
3.75005914147e-07
-1.91784302324e-06
3.86995757934e-07
-1.97811829721e-06
3.8159120037e-07
-2.0324694154e-06
3.56237317669e-07
-2.08388916464e-06
3.25390577706e-07
-2.1328659094e-06
2.9489855973e-07
-2.17654720058e-06
2.64801476579e-07
-2.21095685715e-06
2.34648806211e-07
-2.24664184107e-06
2.15288385898e-07
-2.27855557039e-06
1.92448043125e-07
-2.30653968281e-06
1.67175949621e-07
-2.3234174984e-06
1.36955658878e-07
-2.34075140391e-06
1.18632284168e-07
-2.36237456529e-06
1.1234578516e-07
-2.38346614751e-06
1.07075131793e-07
-2.41882197972e-06
1.12943465991e-07
-2.44907588674e-06
1.11075154018e-07
-2.46727676217e-06
1.02363618829e-07
-2.47868734147e-06
8.622638902e-08
-2.48614579978e-06
6.53170483775e-08
-2.49000302759e-06
4.17320379294e-08
-2.49088247425e-06
1.57214090633e-08
-2.48951385556e-06
-1.21318233725e-08
-2.48508590494e-06
-3.93269516403e-08
-2.47603070209e-06
-6.39313526222e-08
-2.46176456453e-06
-8.66804001845e-08
-2.44259003262e-06
-1.09516097301e-07
-2.41883730453e-06
-1.33739066334e-07
-2.39057399399e-06
-1.59801343777e-07
-2.35764295556e-06
-1.8778942204e-07
-2.31976866437e-06
-2.17778553867e-07
-2.27650805066e-06
-2.49897330724e-07
-2.22706697037e-06
-2.84398896747e-07
-2.17051199849e-06
-3.21938796583e-07
-2.10640749498e-06
-3.63476969891e-07
-2.03434473806e-06
-4.09565040007e-07
-1.95224540698e-06
-4.60757762566e-07
-1.85644980535e-06
-5.19133865608e-07
-1.74274102091e-06
-5.87500032184e-07
-1.60667210246e-06
-6.67598039419e-07
-1.444728821e-06
-7.59725364661e-07
-1.25766065053e-06
-8.61399233594e-07
-1.05642479044e-06
-9.62813209171e-07
-8.64179587904e-07
-1.04095501379e-06
-6.96164413136e-07
-1.07360729137e-06
-5.3662177395e-07
-1.09585819352e-06
-3.85690981536e-07
-9.99760245739e-07
-2.62757839551e-07
-7.79902859686e-07
-1.45083239824e-07
-6.36530225647e-07
-4.0855893027e-08
-5.4016061702e-07
4.40318199573e-08
-4.68889324026e-07
1.09240251223e-07
-4.19319552448e-07
1.36226348277e-07
-3.34187594576e-07
1.30910839835e-07
-2.10338622236e-07
1.27799752017e-07
-1.2659243149e-07
1.26822173815e-07
-7.71202462928e-08
1.20926162529e-07
-3.42665565275e-08
1.05200651448e-07
1.44046968944e-08
8.4405739392e-08
5.48146676612e-08
6.10397168527e-08
8.28049846356e-08
3.16876955319e-08
1.27350718461e-07
1.4509262409e-07
-7.36721100612e-08
8.20107819523e-07
-2.57681067711e-07
1.02403220425e-06
-3.52526393459e-07
1.15859581453e-06
-3.30237613608e-07
9.22827691938e-07
-4.41139054195e-07
6.56511671154e-07
-7.03698022375e-07
9.08459522989e-07
-8.34502218577e-07
9.79216287873e-07
-9.39565557934e-07
9.17876465404e-07
-1.04014599958e-06
8.37903428972e-07
-1.16672255209e-06
7.76635270821e-07
-1.17996693306e-06
5.57909029168e-07
-1.17422329735e-06
3.54939815806e-07
-1.25587756103e-06
3.4332088162e-07
-1.36605538979e-06
3.66597681018e-07
-1.51494832575e-06
4.4518372566e-07
-1.65070339346e-06
4.94484713219e-07
-1.72718116684e-06
4.65178618707e-07
-1.78023502584e-06
4.3301128445e-07
-1.85137714488e-06
4.46191844924e-07
-1.91971383063e-06
4.55373880245e-07
-1.97760954808e-06
4.39525124127e-07
-2.0323175109e-06
4.10980599494e-07
-2.08490413349e-06
3.78009399128e-07
-2.13069986551e-06
3.40723748967e-07
-2.16936848686e-06
3.03497405507e-07
-2.20608318108e-06
2.71388520147e-07
-2.23582251789e-06
2.45051174245e-07
-2.26804751787e-06
2.24694789297e-07
-2.2926372606e-06
1.91786092469e-07
-2.31118997367e-06
1.55527440463e-07
-2.33617608017e-06
1.43636456864e-07
-2.3641285215e-06
1.40315184297e-07
-2.39935263202e-06
1.42315372826e-07
-2.43157096491e-06
1.45177391606e-07
-2.46016942582e-06
1.39688649271e-07
-2.47708710598e-06
1.19295653663e-07
-2.48699235628e-06
9.61452340127e-08
-2.49364165116e-06
7.19792772939e-08
-2.49759857605e-06
4.57012401477e-08
-2.49885163963e-06
1.69862103016e-08
-2.49751163887e-06
-1.34605874976e-08
-2.49292502392e-06
-4.39026754842e-08
-2.48390665516e-06
-7.29391326085e-08
-2.46980573046e-06
-1.00770917716e-07
-2.45065829145e-06
-1.2865331879e-07
-2.42666246679e-06
-1.57724746301e-07
-2.39784936576e-06
-1.8860434262e-07
-2.36405053723e-06
-2.21578040338e-07
-2.32497031715e-06
-2.56848310935e-07
-2.28017431161e-06
-2.94682425044e-07
-2.22902495108e-06
-3.35537057525e-07
-2.17078222434e-06
-3.80169880012e-07
-2.10466887511e-06
-4.29578914357e-07
-2.02921672423e-06
-4.85006125592e-07
-1.94133543891e-06
-5.48627280843e-07
-1.83645793886e-06
-6.23999079449e-07
-1.7093911788e-06
-7.14552429095e-07
-1.5559115368e-06
-8.21062552271e-07
-1.37606758488e-06
-9.39553345809e-07
-1.17733854623e-06
-1.06011377683e-06
-9.76587060325e-07
-1.16354885376e-06
-7.90991967371e-07
-1.22654074209e-06
-6.13419209957e-07
-1.25116667751e-06
-4.66435806212e-07
-1.24283613233e-06
-3.02430702576e-07
-1.16375494033e-06
-1.67128880772e-07
-9.15197318088e-07
-5.29426898522e-08
-7.507096599e-07
5.88836809382e-08
-6.51977999521e-07
1.52832589329e-07
-5.62834489246e-07
2.02116693557e-07
-4.68586350222e-07
1.96370918518e-07
-3.28446869673e-07
1.78311879399e-07
-1.92267870993e-07
1.67212128829e-07
-1.15496548551e-07
1.58378586569e-07
-6.82852266343e-08
1.47877910055e-07
-2.37666468331e-08
1.32441470836e-07
2.98395693583e-08
1.07708679341e-07
7.95449308695e-08
7.62367197412e-08
1.14276656999e-07
4.18110853367e-08
1.61764181406e-07
1.86905171114e-07
-1.2553444052e-07
9.45722959291e-07
-2.80552029192e-07
1.17911402031e-06
-3.35126705818e-07
1.21323457849e-06
-2.69251756122e-07
8.56997270971e-07
-4.82256937791e-07
8.69575275257e-07
-6.9271061348e-07
1.1189908767e-06
-8.01953848539e-07
1.08852971322e-06
-9.14185792756e-07
1.03018100494e-06
-9.67536158574e-07
8.91311566385e-07
-1.02498793214e-06
8.34149734557e-07
-1.02758958059e-06
5.6055324414e-07
-1.13980223435e-06
4.67197238975e-07
-1.24609849705e-06
4.49662490578e-07
-1.39050895203e-06
5.11057785452e-07
-1.54045231913e-06
5.95181071351e-07
-1.62759801884e-06
5.81681820159e-07
-1.68507230286e-06
5.22700122728e-07
-1.76729971553e-06
5.1528426184e-07
-1.85063008443e-06
5.29566436378e-07
-1.91616148897e-06
5.20946720995e-07
-1.97251009372e-06
4.95912011705e-07
-2.02619882266e-06
4.64704078348e-07
-2.0810494634e-06
4.32891772112e-07
-2.13299705426e-06
3.92700767745e-07
-2.16919990304e-06
3.39726661805e-07
-2.20775700688e-06
3.09970380223e-07
-2.23976082324e-06
2.77077932635e-07
-2.25628059921e-06
2.41235944863e-07
-2.27999380952e-06
2.15518974734e-07
-2.32492749831e-06
2.0047970269e-07
-2.35812875053e-06
1.7685534292e-07
-2.37719576794e-06
1.59398835563e-07
-2.41149827306e-06
1.76633907354e-07
-2.44837061839e-06
1.82065225192e-07
-2.47041998874e-06
1.6175284682e-07
-2.48526149326e-06
1.34151259878e-07
-2.49556146044e-06
1.06458633533e-07
-2.50251737642e-06
7.89479877547e-08
-2.50673884872e-06
4.99349676558e-08
-2.50828853786e-06
1.8547656859e-08
-2.50700384019e-06
-1.47339126244e-08
-2.50230202544e-06
-4.85934331889e-08
-2.49327839029e-06
-8.19518995975e-08
-2.47928369747e-06
-1.14754892077e-07
-2.46014377353e-06
-1.4778255373e-07
-2.4358784268e-06
-1.81979365102e-07
-2.40641770038e-06
-2.18054154292e-07
-2.37154704942e-06
-2.56437409442e-07
-2.3309697151e-06
-2.97413886997e-07
-2.28431230896e-06
-3.41327558904e-07
-2.23105825555e-06
-3.88778427818e-07
-2.17046597271e-06
-4.40749626653e-07
-2.1013041668e-06
-4.98728617074e-07
-2.02122935936e-06
-5.65069158734e-07
-1.92630032688e-06
-6.43544427237e-07
-1.81132881445e-06
-7.38956576706e-07
-1.67113160785e-06
-8.54735133563e-07
-1.50326892806e-06
-9.88909234016e-07
-1.31189480649e-06
-1.13091299481e-06
-1.10759611924e-06
-1.2643967931e-06
-9.03335013267e-07
-1.36779914345e-06
-7.091943581e-07
-1.42066673946e-06
-5.36781302355e-07
-1.4235729069e-06
-4.00061205206e-07
-1.37954357534e-06
-2.54891348575e-07
-1.30891478984e-06
-7.10054241505e-08
-1.09907502241e-06
5.66531689997e-08
-8.78356538787e-07
1.69306002917e-07
-7.64622406127e-07
2.62029484056e-07
-6.55543839989e-07
2.93435568189e-07
-4.99994833075e-07
2.68519286246e-07
-3.03516875265e-07
2.34271797331e-07
-1.58026548779e-07
2.03951718442e-07
-8.51730812591e-08
1.86365557406e-07
-5.07007440589e-08
1.79805829752e-07
-1.72076358647e-08
1.70726855052e-07
3.89165174165e-08
1.42600152845e-07
1.07668761056e-07
9.81808791576e-08
1.58688747652e-07
5.16642432795e-08
2.08283865488e-07
2.38561002902e-07
-1.55789171674e-07
1.10154680975e-06
-2.73533049772e-07
1.29691647053e-06
-2.86166138314e-07
1.22591443071e-06
-3.24083985144e-07
8.94961938736e-07
-5.49155171896e-07
1.09470772549e-06
-6.562836971e-07
1.22618698043e-06
-7.59642349816e-07
1.1919538729e-06
-8.7010441568e-07
1.14070072576e-06
-9.30190430742e-07
9.51453890425e-07
-9.90689657791e-07
8.94699562035e-07
-1.03293778946e-06
6.02842972122e-07
-1.13614993534e-06
5.7045049973e-07
-1.26004492042e-06
5.73605362839e-07
-1.41606844095e-06
6.67133506408e-07
-1.54401838449e-06
7.23182571365e-07
-1.61428435224e-06
6.51997544206e-07
-1.67846112192e-06
5.86923609276e-07
-1.76221034813e-06
5.99079309418e-07
-1.84187169388e-06
6.09271936322e-07
-1.91062247616e-06
5.89738813677e-07
-1.97035261787e-06
5.5567984973e-07
-2.02075931344e-06
5.15144965725e-07
-2.06555373189e-06
4.77717983497e-07
-2.1124505362e-06
4.39625599489e-07
-2.15499031534e-06
3.82292431384e-07
-2.18567725903e-06
3.40681720994e-07
-2.22455880926e-06
3.15981527107e-07
-2.26500458747e-06
2.81702745388e-07
-2.29880099172e-06
2.4933464455e-07
-2.3280776706e-06
2.29774402331e-07
-2.36132298759e-06
2.10117612438e-07
-2.40934142981e-06
2.0743376366e-07
-2.4395505464e-06
2.06858900826e-07
-2.46083168424e-06
2.03361604369e-07
-2.47941056066e-06
1.80346283895e-07
-2.49429696886e-06
1.49051560149e-07
-2.5052847951e-06
1.17459694788e-07
-2.51275498615e-06
8.64308698516e-08
-2.51727374803e-06
5.44659301385e-08
-2.51907128787e-06
2.03570219424e-08
-2.5179169451e-06
-1.58767534724e-08
-2.51321229299e-06
-5.32867847821e-08
-2.50420822177e-06
-9.09448253572e-08
-2.49030329474e-06
-1.28648676318e-07
-2.47116262537e-06
-1.66911977212e-07
-2.44659265357e-06
-2.065378118e-07
-2.41637780781e-06
-2.48256984158e-07
-2.38023308518e-06
-2.92569588105e-07
-2.33785235967e-06
-3.39781327227e-07
-2.28891773712e-06
-3.90248613179e-07
-2.23298227972e-06
-4.44700415425e-07
-2.16921804386e-06
-5.0450118547e-07
-2.0960012455e-06
-5.71934291462e-07
-2.01045183859e-06
-6.50608208073e-07
-1.90835703451e-06
-7.45627118056e-07
-1.78479342421e-06
-8.62507406192e-07
-1.63508161331e-06
-1.00443174753e-06
-1.45710301595e-06
-1.16687392762e-06
-1.25723547671e-06
-1.33076453455e-06
-1.04630847988e-06
-1.47531148549e-06
-8.31260850146e-07
-1.58283178087e-06
-6.24425222918e-07
-1.6274939677e-06
-4.41040108893e-07
-1.60694598403e-06
-2.88185270225e-07
-1.53238980546e-06
-1.78513612376e-07
-1.41857956602e-06
-1.61679285621e-08
-1.26140524797e-06
1.62751224288e-07
-1.05726603549e-06
2.80173314761e-07
-8.82034749881e-07
3.82881886461e-07
-7.5825115043e-07
4.140032267e-07
-5.3110502399e-07
3.665462124e-07
-2.56065352394e-07
2.91479617876e-07
-8.29539643367e-08
2.2568527275e-07
-1.93804445222e-08
2.0079737626e-07
-2.58112434896e-08
2.14841865991e-07
-3.12533723032e-08
2.23727990975e-07
3.00282716941e-08
1.88547168599e-07
1.42847677249e-07
1.28229359514e-07
2.19006443237e-07
6.12307454666e-08
2.75268076284e-07
2.99794704779e-07
-1.72335123768e-07
1.27397026701e-06
-2.85740220477e-07
1.41038702232e-06
-2.66634035273e-07
1.20686109197e-06
-3.76728800173e-07
1.00510291692e-06
-5.66044714076e-07
1.28408311884e-06
-6.23821679355e-07
1.28402126674e-06
-7.12240779223e-07
1.28043401909e-06
-7.77264766117e-07
1.20577449247e-06
-8.68428594665e-07
1.04266536666e-06
-9.00340627378e-07
9.26654500397e-07
-1.00295642727e-06
7.05496684074e-07
-1.12699836459e-06
6.94536512636e-07
-1.26183753984e-06
7.08489539843e-07
-1.40635678397e-06
8.11704187578e-07
-1.49929877937e-06
8.16175773745e-07
-1.56065607647e-06
7.13400146972e-07
-1.65430488336e-06
6.8061807393e-07
-1.74742037868e-06
6.92240652252e-07
-1.82575232538e-06
6.87647750088e-07
-1.89852109761e-06
6.62548146656e-07
-1.96739157048e-06
6.24587432491e-07
-2.02702309549e-06
5.74811196727e-07
-2.06667816659e-06
5.17403597734e-07
-2.09929132267e-06
4.72266591603e-07
-2.15254006586e-06
4.35566694176e-07
-2.19125800246e-06
3.79422979294e-07
-2.20904075594e-06
3.33786516284e-07
-2.23602659171e-06
3.08708733923e-07
-2.27716146269e-06
2.90488391235e-07
-2.32844995801e-06
2.81080425943e-07
-2.37628672665e-06
2.57970964163e-07
-2.4146050916e-06
2.45768132289e-07
-2.45175365244e-06
2.44023087319e-07
-2.47416166852e-06
2.25784604108e-07
-2.49065595267e-06
1.96854841983e-07
-2.50498299779e-06
1.6339219949e-07
-2.5164278508e-06
1.28917599532e-07
-2.52443441592e-06
9.44500103369e-08
-2.5292449799e-06
5.9288706906e-08
-2.53121155752e-06
2.23354934109e-08
-2.53020068624e-06
-1.68759506516e-08
-2.52560689998e-06
-5.78690708462e-08
-2.51670980937e-06
-9.98304219499e-08
-2.50292349415e-06
-1.42423374363e-07
-2.48380627392e-06
-1.86017262133e-07
-2.45895042698e-06
-2.31381199878e-07
-2.42792597868e-06
-2.79268354441e-07
-2.39032536033e-06
-3.30156326848e-07
-2.34581863732e-06
-3.84273781785e-07
-2.29412264326e-06
-4.41930431273e-07
-2.23482626209e-06
-5.03983471891e-07
-2.16703849954e-06
-5.72277596992e-07
-2.08896718803e-06
-6.49996563631e-07
-1.99778364409e-06
-7.41781189616e-07
-1.89007878019e-06
-8.53320256914e-07
-1.76239385912e-06
-9.90178545531e-07
-1.60896581631e-06
-1.15784528695e-06
-1.42211827774e-06
-1.35370458363e-06
-1.2133492413e-06
-1.53952033736e-06
-9.97032915226e-07
-1.69161159517e-06
-7.6609407062e-07
-1.8137590734e-06
-5.31556248866e-07
-1.86201828758e-06
-3.12540662782e-07
-1.82595293996e-06
-1.27164161692e-07
-1.71775903817e-06
1.96491386234e-09
-1.54769625347e-06
9.06119429279e-08
-1.3500490034e-06
1.71330596087e-07
-1.13798247592e-06
3.5631356374e-07
-1.06702075791e-06
5.23226507433e-07
-9.25163156475e-07
5.93969910637e-07