/*--------------------------------*- C++ -*----------------------------------*\
| =========                 |                                                 |
| \\      /  F ield         | OpenFOAM: The Open Source CFD Toolbox           |
|  \\    /   O peration     | Version:  v1806                                 |
|   \\  /    A nd           | Web:      www.OpenFOAM.com                      |
|    \\/     M anipulation  |                                                 |
\*---------------------------------------------------------------------------*/
FoamFile
{
    version     2.0;
    format      ascii;
    class       surfaceScalarField;
    location    "928";
    object      phi;
}
// * * * * * * * * * * * * * * * * * * * * * * * * * * * * * * * * * * * * * //

dimensions      [0 3 -1 0 0 0 0];
oriented        oriented;


internalField   nonuniform List<scalar> 
12640
(
-2.56577851683e-07
2.56720881561e-07
-4.80147265323e-07
2.23708405319e-07
-6.67526486461e-07
1.87486410767e-07
-8.21545514899e-07
1.54109597268e-07
-9.35989491004e-07
1.14518054074e-07
-1.01091785531e-06
7.50017615366e-08
-1.06585665722e-06
5.50088399646e-08
-1.14114913037e-06
7.53559845823e-08
-1.23770806031e-06
9.66184207595e-08
-1.32775285046e-06
9.00975495082e-08
-1.40922997615e-06
8.15219511188e-08
-1.48974867301e-06
8.05591254123e-08
-1.56045240757e-06
7.07404342661e-08
-1.6184375982e-06
5.8019333358e-08
-1.67092054952e-06
5.25147650517e-08
-1.72860648438e-06
5.77160210009e-08
-1.7871913386e-06
5.86130985489e-08
-1.83690738226e-06
4.97427624956e-08
-1.87713242784e-06
4.0249757383e-08
-1.91528609792e-06
3.8177232244e-08
-1.9626864058e-06
4.74226801562e-08
-2.01861460959e-06
5.59494429972e-08
-2.07386313972e-06
5.52682553702e-08
-2.12425668659e-06
5.04118479138e-08
-2.1691366994e-06
4.48968568628e-08
-2.20904694074e-06
3.99260090718e-08
-2.24544515757e-06
3.64130043509e-08
-2.27774244852e-06
3.23112829309e-08
-2.3054020065e-06
2.76727528201e-08
-2.32936990091e-06
2.39803773554e-08
-2.35147761272e-06
2.2119487978e-08
-2.37110400935e-06
1.96375713822e-08
-2.3872619459e-06
1.61686849575e-08
-2.40251200378e-06
1.52603385057e-08
-2.41721534646e-06
1.47132952769e-08
-2.43039700376e-06
1.31911672153e-08
-2.44263980922e-06
1.22519378147e-08
-2.45281705433e-06
1.01858453287e-08
-2.45920049579e-06
6.39175042036e-09
-2.4616542256e-06
2.4615754503e-09
-2.46200615018e-06
3.59444820248e-10
-2.45881391564e-06
-3.18530825168e-09
-2.44892141232e-06
-9.88587506959e-09
-2.43388623748e-06
-1.50289594554e-08
-2.41540922769e-06
-1.84709043758e-08
-2.39298568312e-06
-2.2417743327e-08
-2.36606053087e-06
-2.69193708381e-08
-2.33381610181e-06
-3.22388973979e-08
-2.29606310248e-06
-3.77474420861e-08
-2.25466714857e-06
-4.13906341634e-08
-2.21180631161e-06
-4.28554506225e-08
-2.16443596885e-06
-4.73651623537e-08
-2.10599259359e-06
-5.84381593459e-08
-2.03749617496e-06
-6.8491272792e-08
-1.95903192665e-06
-7.84590853098e-08
-1.86886912778e-06
-9.01576604578e-08
-1.77430310304e-06
-9.45604320065e-08
-1.67717290899e-06
-9.71241153593e-08
-1.56987662015e-06
-1.07289352025e-07
-1.45217064276e-06
-1.17698037038e-07
-1.32856850775e-06
-1.23593089518e-07
-1.18915221224e-06
-1.39405979284e-07
-1.01328864987e-06
-1.75852427644e-07
-8.11507215213e-07
-2.01771835e-07
-6.39738000101e-07
-1.7176186681e-07
-5.1770102061e-07
-1.22032257444e-07
-4.19512172199e-07
-9.81850815307e-08
-3.3052738239e-07
-8.89820645058e-08
-2.46896857806e-07
-8.36290609194e-08
-1.68070742511e-07
-7.88262586189e-08
-9.94202136506e-08
-6.86524797006e-08
-4.60552714661e-08
-5.33659389209e-08
-8.66943345161e-09
-3.73879579473e-08
1.63211311884e-08
-2.49922109661e-08
2.94954673389e-08
-1.31753664177e-08
3.45468605917e-08
-5.05378870716e-09
3.49929381959e-08
-4.4495475309e-10
2.87243490584e-08
6.26882255767e-09
1.87462965693e-08
9.97317609823e-09
1.87496302213e-08
-1.3740236455e-07
3.94240053717e-07
-3.17681179756e-07
4.04092662488e-07
-4.87932109279e-07
3.57830582489e-07
-6.57031187989e-07
3.23281575863e-07
-8.55151101858e-07
3.12713417675e-07
-9.99788505564e-07
2.19708082623e-07
-1.08312821397e-06
1.38416738398e-07
-1.16235059237e-06
1.54646076282e-07
-1.24906829207e-06
1.83397724299e-07
-1.34003965769e-06
1.81122546023e-07
-1.42501997102e-06
1.66550190256e-07
-1.49630724325e-06
1.51887678505e-07
-1.55926584785e-06
1.33737015812e-07
-1.61718296447e-06
1.15971829455e-07
-1.6718426651e-06
1.07208772328e-07
-1.73067377965e-06
1.16579450696e-07
-1.78607755796e-06
1.14046786283e-07
-1.82205968297e-06
8.57516330533e-08
-1.85420842594e-06
7.2423628e-08
-1.89871023516e-06
8.27029546141e-08
-1.95483026065e-06
1.03566163981e-07
-2.01836089136e-06
1.19502196818e-07
-2.07739645066e-06
1.1432451706e-07
-2.12521893967e-06
9.82533337e-08
-2.16811052961e-06
8.78061024923e-08
-2.21005417339e-06
8.18860744407e-08
-2.24694344228e-06
7.33177501545e-08
-2.27833707519e-06
6.37194995299e-08
-2.30595335447e-06
5.53027975072e-08
-2.33037494243e-06
4.84150035303e-08
-2.35151187108e-06
4.32686907315e-08
-2.36975309332e-06
3.78905345785e-08
-2.3846607495e-06
3.10874518985e-08
-2.39911885277e-06
2.97293086402e-08
-2.41558942648e-06
3.11941311241e-08
-2.42944508526e-06
2.70568921824e-08
-2.44089756476e-06
2.37138198846e-08
-2.45278898405e-06
2.20863979154e-08
-2.46341592092e-06
1.70271455826e-08
-2.46785929629e-06
6.91330091849e-09
-2.45855868212e-06
-8.93356363016e-09
-2.44055595608e-06
-2.11806597481e-08
-2.42554598048e-06
-2.48891955806e-08
-2.41267573261e-06
-2.78925532924e-08
-2.39759814811e-06
-3.35423709193e-08
-2.37917854338e-06
-4.08311123699e-08
-2.35622013579e-06
-4.98719982905e-08
-2.328624617e-06
-5.98284597295e-08
-2.29575520462e-06
-7.06113008888e-08
-2.25432772349e-06
-8.28123613143e-08
-2.2019063965e-06
-9.5271407467e-08
-2.14486883894e-06
-1.04397180209e-07
-2.0928663636e-06
-1.104353392e-07
-2.03363011248e-06
-1.27722060741e-07
-1.95881505424e-06
-1.53268897971e-07
-1.87807486842e-06
-1.70892334357e-07
-1.78987671881e-06
-1.82753064059e-07
-1.68985472604e-06
-1.97139765e-07
-1.58127430809e-06
-2.15862816399e-07
-1.46154466622e-06
-2.37419445869e-07
-1.32171422196e-06
-2.63414629851e-07
-1.16700002757e-06
-2.94110059365e-07
-9.89705183174e-07
-3.53136908789e-07
-7.96028530419e-07
-3.95438518337e-07
-6.18754722268e-07
-3.49029450151e-07
-4.78499360015e-07
-2.62283035016e-07
-3.79851059644e-07
-1.9683048454e-07
-3.00457016787e-07
-1.68373869591e-07
-2.2377937281e-07
-1.60305965857e-07
-1.48684920636e-07
-1.53921552231e-07
-8.23234194415e-08
-1.35014715728e-07
-3.12040385894e-08
-1.04487987526e-07
4.43173044394e-09
-7.3024024159e-08
2.78621362081e-08
-4.84242726383e-08
4.19076597005e-08
-2.72227065213e-08
4.84380119341e-08
-1.15842164102e-08
4.7463169834e-08
5.27354827485e-10
3.97789154545e-08
1.39535344089e-08
2.29050291741e-08
2.68524259658e-08
4.16479646569e-08
-1.72776873091e-07
5.67068257049e-07
-2.68174690731e-07
4.99578021927e-07
-4.66241856082e-07
5.5598265814e-07
-6.85355325782e-07
5.4247437007e-07
-8.8461377167e-07
5.12039369447e-07
-9.92562814495e-07
3.27716642012e-07
-1.04906118729e-06
1.94977402728e-07
-1.13665121007e-06
2.4229984502e-07
-1.23676016679e-06
2.83565706354e-07
-1.33305530647e-06
2.77470927303e-07
-1.42131121228e-06
2.54851457088e-07
-1.49604977868e-06
2.266673636e-07
-1.55966172369e-06
1.97387208962e-07
-1.61916810299e-06
1.75514869094e-07
-1.66753195446e-06
1.55607572877e-07
-1.67240006941e-06
1.21479381076e-07
-1.65192545638e-06
9.35993682683e-08
-1.66967953198e-06
1.03530498202e-07
-1.74076246358e-06
1.43530496103e-07
-1.85153719354e-06
1.93501622923e-07
-1.95721390906e-06
2.09266436467e-07
-2.02456146655e-06
1.86872002412e-07
-2.07461647487e-06
1.64399980444e-07
-2.12535312724e-06
1.49008959367e-07
-2.17220691813e-06
1.34677470276e-07
-2.21165038584e-06
1.21345975842e-07
-2.24655565077e-06
1.08238396206e-07
-2.27811655908e-06
9.52949337521e-08
-2.30587960897e-06
8.30795540978e-08
-2.33043404338e-06
7.29824124441e-08
-2.35064927078e-06
6.34961763937e-08
-2.36825066433e-06
5.55035333284e-08
-2.38509695514e-06
4.79449503134e-08
-2.3959036767e-06
4.05467810024e-08
-2.40856942503e-06
4.38702666368e-08
-2.42812102867e-06
4.66183929677e-08
-2.44156699514e-06
3.71692988225e-08
-2.45074042556e-06
3.12687527942e-08
-2.46189039076e-06
2.81856947939e-08
-2.46892963339e-06
1.39606162996e-08
-2.46944415794e-06
-8.41131932318e-09
-2.46414711756e-06
-2.64705386224e-08
-2.45301643806e-06
-3.60129987393e-08
-2.43772638195e-06
-4.3176160329e-08
-2.41897526133e-06
-5.22871936544e-08
-2.39622022619e-06
-6.35801635896e-08
-2.3693871604e-06
-7.66991431673e-08
-2.33809464411e-06
-9.11152987643e-08
-2.30192448599e-06
-1.06775780302e-07
-2.26103609916e-06
-1.23695259524e-07
-2.21567330512e-06
-1.40628634887e-07
-2.16379096853e-06
-1.56274030007e-07
-2.10039914631e-06
-1.73821663093e-07
-2.02919330236e-06
-1.98922468566e-07
-1.95640444618e-06
-2.26052390106e-07
-1.87714706544e-06
-2.50144450627e-07
-1.78551995667e-06
-2.743744832e-07
-1.68154999742e-06
-3.01103686611e-07
-1.56620278947e-06
-3.31203004501e-07
-1.43824541393e-06
-3.65368895345e-07
-1.29620987025e-06
-4.05441217276e-07
-1.12667750507e-06
-4.63633009372e-07
-9.2759181782e-07
-5.52212872251e-07
-7.21087339356e-07
-6.01935878567e-07
-5.50397260819e-07
-5.19713739798e-07
-4.36792338853e-07
-3.75884647846e-07
-3.39949590646e-07
-2.93670578298e-07
-2.52735042457e-07
-2.5558726866e-07
-1.75365413534e-07
-2.37675548392e-07
-1.05506698128e-07
-2.23780356321e-07
-4.6332195132e-08
-1.9419193122e-07
-5.4612403974e-10
-1.50272884687e-07
3.25080147166e-08
-1.06080538508e-07
5.08488116878e-08
-6.67655595891e-08
5.97674789948e-08
-3.61425620205e-08
6.23319411016e-08
-1.41513449421e-08
5.89661358593e-08
3.89535145907e-09
4.92092429515e-08
2.37114687661e-08
2.37065811988e-08
5.23458651672e-08
6.53594168608e-08
-1.25685768677e-07
6.92847543007e-07
-1.76365420703e-07
5.50314900003e-07
-3.95904317778e-07
7.75595620157e-07
-5.78536328245e-07
7.25179598761e-07
-6.07374289511e-07
5.40934914446e-07
-5.59687745165e-07
2.80062947552e-07
-7.53162205575e-07
3.88494035778e-07
-1.02786169245e-06
5.17057503465e-07
-1.19860929947e-06
4.54370096772e-07
-1.3147305196e-06
3.93642440436e-07
-1.41379337159e-06
3.53959487304e-07
-1.49756044433e-06
3.10474619119e-07
-1.55854053717e-06
2.58404628655e-07
-1.57112276052e-06
1.88132079883e-07
-1.54493253522e-06
1.29449501955e-07
-1.54143017689e-06
1.18006062678e-07
-1.5974555349e-06
1.49651468768e-07
-1.70630475012e-06
2.12405382621e-07
-1.82900031119e-06
2.66251566567e-07
-1.91430831636e-06
2.78834404069e-07
-1.96912169389e-06
2.64103198483e-07
-2.02497411736e-06
2.42746245071e-07
-2.07997905602e-06
2.19425228189e-07
-2.12830055632e-06
1.97349198755e-07
-2.17138401511e-06
1.77778305158e-07
-2.21011594953e-06
1.60094084554e-07
-2.24580641005e-06
1.43944034464e-07
-2.27780936799e-06
1.27312192533e-07
-2.30610594602e-06
1.11389636861e-07
-2.32956665591e-06
9.64558845549e-08
-2.35088360759e-06
8.48252011231e-08
-2.36689049661e-06
7.15219293171e-08
-2.37856306342e-06
5.96285328837e-08
-2.39829194398e-06
6.0286386528e-08
-2.41545987308e-06
6.10484917504e-08
-2.42982337448e-06
6.09917496987e-08
-2.45126217637e-06
5.86174534285e-08
-2.4675956352e-06
4.76111227153e-08
-2.47263741958e-06
3.32358420582e-08
-2.47269383778e-06
1.40249915627e-08
-2.47142233557e-06
-9.67534457264e-09
-2.46704984507e-06
-3.08359167066e-08
-2.45722426291e-06
-4.58319164083e-08
-2.44229662261e-06
-5.8097415041e-08
-2.42318385292e-06
-7.13939044982e-08
-2.40000670298e-06
-8.67514217054e-08
-2.37267913017e-06
-1.04021054737e-07
-2.34092584528e-06
-1.22863010218e-07
-2.30450539813e-06
-1.43190813346e-07
-2.26332786131e-06
-1.64867348024e-07
-2.21670264739e-06
-1.87248450002e-07
-2.16262788372e-06
-2.10343347817e-07
-2.0998948708e-06
-2.36549166282e-07
-2.03107453875e-06
-2.67737412781e-07
-1.95622246289e-06
-3.00899178919e-07
-1.8718819075e-06
-3.3447953957e-07
-1.77555120486e-06
-3.70699798511e-07
-1.6656778718e-06
-4.10970698902e-07
-1.54070489715e-06
-4.56168891186e-07
-1.39790294675e-06
-5.08162714461e-07
-1.23185957622e-06
-5.71476249692e-07
-1.04248101843e-06
-6.53002578014e-07
-8.59297431987e-07
-7.35389304737e-07
-6.90466038568e-07
-7.7076011782e-07
-5.16359704387e-07
-6.93816336435e-07
-3.76454199113e-07
-5.15787309144e-07
-2.72955148759e-07
-3.97168772323e-07
-1.89251900519e-07
-3.39289860805e-07
-1.18791246879e-07
-3.08135712914e-07
-5.5056612843e-08
-2.87516636643e-07
3.40705625256e-09
-2.52653119071e-07
4.57992430976e-08
-1.92668891476e-07
6.46433611638e-08
-1.24922800758e-07
7.1285476086e-08
-7.34095032152e-08
7.47690259298e-08
-3.96274058007e-08
7.20534935571e-08
-1.14356320236e-08
5.84964195579e-08
1.74492937941e-08
4.22869656856e-08
3.9919020279e-08
2.28436984425e-08
7.17960362826e-08
8.8195690472e-08
-3.27779211604e-08
7.25641847485e-07
-1.55938187548e-07
6.73516664086e-07
-3.34586621207e-07
9.54299559758e-07
-4.77403073664e-07
8.68044951565e-07
-4.73371598926e-07
5.36944830978e-07
-5.85597469497e-07
3.92323076689e-07
-8.16903250549e-07
6.19847356171e-07
-9.92813853484e-07
6.93020777871e-07
-1.14286623788e-06
6.04474209715e-07
-1.2746605357e-06
5.25482919108e-07
-1.39154231079e-06
4.70883326182e-07
-1.46228608881e-06
3.81255751596e-07
-1.45990411139e-06
2.56056287096e-07
-1.4486148141e-06
1.76874046967e-07
-1.49310072035e-06
1.73965513873e-07
-1.5872315705e-06
2.12166301522e-07
-1.70554010004e-06
2.67988800221e-07
-1.80546861402e-06
3.12361781659e-07
-1.86603507204e-06
3.26844348024e-07
-1.91312664731e-06
3.25950626011e-07
-1.96904140646e-06
3.20041091798e-07
-2.02692565793e-06
3.00652127954e-07
-2.08032565378e-06
2.72845156776e-07
-2.12787637469e-06
2.44918309423e-07
-2.17030876264e-06
2.20227778878e-07
-2.20963948018e-06
1.99440714532e-07
-2.24458948253e-06
1.78908963612e-07
-2.27719076976e-06
1.59927491271e-07
-2.30448134661e-06
1.38693471749e-07
-2.3276824672e-06
1.19669549445e-07
-2.34384165657e-06
1.00996240875e-07
-2.36276693143e-06
9.04585064915e-08
-2.38882851358e-06
8.57011073447e-08
-2.40585140093e-06
7.73199468522e-08
-2.42522399581e-06
8.04313298933e-08
-2.44784864371e-06
8.36261496599e-08
-2.46346547477e-06
7.42435161049e-08
-2.47316003002e-06
5.73143507492e-08
-2.47729593462e-06
3.73799445146e-08
-2.47767872259e-06
1.44154984257e-08
-2.4762414025e-06
-1.11053565069e-08
-2.47189625362e-06
-3.51741980572e-08
-2.46259590423e-06
-5.51257551088e-08
-2.44801980456e-06
-7.26673649665e-08
-2.42880118099e-06
-9.06066419679e-08
-2.40528471803e-06
-1.10262255009e-07
-2.37747877666e-06
-1.31821551848e-07
-2.34519062049e-06
-1.55145886085e-07
-2.30818526317e-06
-1.80190924944e-07
-2.26613079198e-06
-2.06916604877e-07
-2.21814781762e-06
-2.35226053497e-07
-2.16285182093e-06
-2.65633761334e-07
-2.09980515478e-06
-2.99590234784e-07
-2.02986223144e-06
-3.3767462062e-07
-1.951964039e-06
-3.78791508316e-07
-1.86299844934e-06
-4.23439597707e-07
-1.75985485803e-06
-4.73836782463e-07
-1.63936548668e-06
-5.31453179641e-07
-1.49808217263e-06
-5.97444011507e-07
-1.33275127969e-06
-6.73485220002e-07
-1.14433622525e-06
-7.59882187024e-07
-9.51412585166e-07
-8.45919366989e-07
-7.84974473476e-07
-9.0182020032e-07
-6.24037955387e-07
-9.31693555782e-07
-4.73075360467e-07
-8.44775496189e-07
-3.34543731621e-07
-6.54318406621e-07
-2.14791547591e-07
-5.16919857237e-07
-1.19751011138e-07
-4.34329674675e-07
-4.55235837605e-08
-3.8236349814e-07
1.89537006134e-08
-3.51991061415e-07
7.07681765607e-08
-3.04472377981e-07
9.08883612568e-08
-2.12784610499e-07
9.31910191993e-08
-1.27228885576e-07
9.59466146262e-08
-7.61646848029e-08
9.52955927252e-08
-3.89779305313e-08
8.48285243348e-08
-9.71625334444e-10
6.85351785447e-08
3.37437686809e-08
4.95892793529e-08
5.88657667986e-08
2.42563299029e-08
9.71166565903e-08
1.12455871257e-07
-1.90500169049e-08
7.44741876337e-07
-1.83485990337e-07
8.37989857456e-07
-2.89835407981e-07
1.06069050648e-06
-3.64265806372e-07
9.42516733683e-07
-3.71691675199e-07
5.44398880733e-07
-6.23603141812e-07
6.44273812564e-07
-8.49548374512e-07
8.4584142925e-07
-9.66699324196e-07
8.10219952575e-07
-1.09710284125e-06
7.34920015182e-07
-1.21951129805e-06
6.47936166028e-07
-1.29152289904e-06
5.42933151555e-07
-1.27000433226e-06
3.59768459407e-07
-1.27507223104e-06
2.61152303454e-07
-1.354104243e-06
2.55934433049e-07
-1.47571635648e-06
2.95607604179e-07
-1.62117762462e-06
3.57658495952e-07
-1.74053569094e-06
3.87376816622e-07
-1.80680046931e-06
3.78654599574e-07
-1.85367914958e-06
3.73749232e-07
-1.91328923271e-06
3.85585422487e-07
-1.97334965338e-06
3.80124604609e-07
-2.02752279783e-06
3.54846510469e-07
-2.0787725966e-06
3.24114585308e-07
-2.12757884758e-06
2.93742692702e-07
-2.17111122578e-06
2.63776868657e-07
-2.20543475478e-06
2.33779831939e-07
-2.24100416369e-06
2.14492948143e-07
-2.27282787193e-06
1.91764963154e-07
-2.30073426887e-06
1.66612851509e-07
-2.31762025984e-06
1.36567749258e-07
-2.33493891976e-06
1.18326521586e-07
-2.3564975846e-06
1.12028408189e-07
-2.37752275573e-06
1.06737129248e-07
-2.41264499017e-06
1.1245274774e-07
-2.44268364938e-06
1.10480169337e-07
-2.46076129329e-06
1.01713407907e-07
-2.47209426105e-06
8.55854996588e-08
-2.47949272495e-06
6.47212804156e-08
-2.48330094955e-06
4.1196119534e-08
-2.48413413713e-06
1.52561741037e-08
-2.48271284932e-06
-1.251959407e-08
-2.47823049521e-06
-3.96499030217e-08
-2.46913113243e-06
-6.42188602956e-08
-2.45483408509e-06
-8.69584975774e-08
-2.43563681904e-06
-1.09798294496e-07
-2.41186358561e-06
-1.34030136737e-07
-2.3835778765e-06
-1.60102107621e-07
-2.35062049751e-06
-1.8809822311e-07
-2.31271564505e-06
-2.18090795038e-07
-2.26942188248e-06
-2.50205199958e-07
-2.2199504107e-06
-2.84692125613e-07
-2.16337438909e-06
-3.22204190928e-07
-2.09925897929e-06
-3.63699645149e-07
-2.02719168569e-06
-4.09735767566e-07
-1.9451008095e-06
-4.6087656121e-07
-1.84933998155e-06
-5.19193468021e-07
-1.73570384717e-06
-5.87466354111e-07
-1.59976075234e-06
-6.67387981429e-07
-1.43802519972e-06
-7.59171102528e-07
-1.25128264576e-06
-8.60218619143e-07
-1.05052286509e-06
-9.60634947308e-07
-8.58806842052e-07
-1.03762798201e-06
-6.91260202724e-07
-1.0693640797e-06
-5.32372668111e-07
-1.09057662647e-06
-3.82254917888e-07
-9.94893060375e-07
-2.59935988692e-07
-7.76636417809e-07
-1.42755836444e-07
-6.34099613766e-07
-3.87447247138e-08
-5.38341076037e-07
4.60892821378e-08
-4.67194981476e-07
1.11045840293e-07
-4.16950838759e-07
1.37357306968e-07
-3.30777162409e-07
1.31192322292e-07
-2.06625379659e-07
1.27112714987e-07
-1.23146817576e-07
1.25357732212e-07
-7.44124386882e-08
1.19231824671e-07
-3.2853908934e-08
1.03840040866e-07
1.44194584779e-08
8.34928499937e-08
5.40870644328e-08
6.04894240286e-08
8.18635812923e-08
3.14439588487e-08
1.26168928562e-07
1.4389085856e-07
-7.35539223892e-08
8.18307278522e-07
-2.57024180103e-07
1.02149102514e-06
-3.51692269963e-07
1.1553879211e-06
-3.29677667921e-07
9.20533919424e-07
-4.40408767233e-07
6.55161994312e-07
-7.02159619208e-07
9.06069090754e-07
-8.32607128072e-07
9.76335769884e-07
-9.37470647335e-07
9.15122342023e-07
-1.03789739864e-06
8.35390888461e-07
-1.16421262071e-06
7.74284561513e-07
-1.17766819654e-06
5.5642125439e-07
-1.17214296249e-06
3.54268891027e-07
-1.25362209914e-06
3.42659063084e-07
-1.36348875029e-06
3.65830558678e-07
-1.51181159131e-06
4.43961600501e-07
-1.64699090561e-06
4.92868989145e-07
-1.7232502473e-06
4.63665578061e-07
-1.77621875919e-06
4.31650532656e-07
-1.84710667715e-06
4.44663378696e-07
-1.91518501538e-06
4.53688521263e-07
-1.97288805936e-06
4.3785037697e-07
-2.02741787356e-06
4.09397384963e-07
-2.07983054909e-06
3.76546582879e-07
-2.12548939391e-06
3.39419124125e-07
-2.16405970579e-06
3.02363637517e-07
-2.20067197015e-06
2.70407251422e-07
-2.2303528963e-06
2.44188229814e-07
-2.26248238885e-06
2.23907826847e-07
-2.28703922033e-06
1.9118226977e-07
-2.30559223178e-06
1.55132602737e-07
-2.33049479354e-06
1.4324060642e-07
-2.35832195103e-06
1.39866638402e-07
-2.39334036583e-06
1.4176636939e-07
-2.42535548752e-06
1.44478361108e-07
-2.45375439329e-06
1.3888905744e-07
-2.4705656506e-06
1.18534036712e-07
-2.48041039858e-06
9.54390131536e-08
-2.48701020748e-06
7.13292988227e-08
-2.49092181692e-06
4.51154248729e-08
-2.49213183538e-06
1.64734110649e-08
-2.49074761649e-06
-1.38970411062e-08
-2.48611845169e-06
-4.42727194735e-08
-2.4770666125e-06
-7.32647401158e-08
-2.4629441659e-06
-1.01075337805e-07
-2.44378390267e-06
-1.28953271506e-07
-2.41977886718e-06
-1.5803014452e-07
-2.39095597899e-06
-1.88920170626e-07
-2.35714444666e-06
-2.21905050405e-07
-2.31804792065e-06
-2.57182501501e-07
-2.27323356189e-06
-2.95014568842e-07
-2.22206797679e-06
-3.35852372257e-07
-2.16381733278e-06
-3.80448881717e-07
-2.09771052704e-06
-4.29800277881e-07
-2.02228850626e-06
-4.85151612833e-07
-1.93447597929e-06
-5.48681875871e-07
-1.82971718148e-06
-6.23945752648e-07
-1.70280818053e-06
-7.14366850347e-07
-1.5494876569e-06
-8.20700115576e-07
-1.36974789711e-06
-9.38901799368e-07
-1.17105740508e-06
-1.05890135023e-06
-9.70460979227e-07
-1.16122343287e-06
-7.85160910067e-07
-1.22292448229e-06
-6.08230102162e-07
-1.24628965713e-06
-4.61962599975e-07
-1.23684414402e-06
-2.99213422065e-07
-1.15764131713e-06
-1.64786601507e-07
-9.11063293266e-07
-5.10624550729e-08
-7.47824140307e-07
6.08372964468e-08
-6.50238448676e-07
1.5512955158e-07
-5.61488114835e-07
2.04384666741e-07
-4.66199087247e-07
1.97908822279e-07
-3.24307693817e-07
1.7852840432e-07
-1.87240383688e-07
1.65832650698e-07
-1.1045555876e-07
1.55837619306e-07
-6.44184123278e-08
1.45239345513e-07
-2.22581514317e-08
1.30539158965e-07
2.91157822624e-08
1.06583641887e-07
7.80414802372e-08
7.5681871788e-08
1.12766098234e-07
4.15862905424e-08
1.60247822496e-07
1.85481305673e-07
-1.25247402934e-07
9.43606702936e-07
-2.79782082462e-07
1.1760591301e-06
-3.34330130849e-07
1.20997066646e-06
-2.68889399367e-07
8.55116855216e-07
-4.81325225276e-07
8.67631037138e-07
-6.91104125697e-07
1.115892954e-06
-8.00126497216e-07
1.08539658006e-06
-9.1213037147e-07
1.02716703183e-06
-9.65549406962e-07
8.88838403981e-07
-1.02300413396e-06
8.31773695789e-07
-1.02585722856e-06
5.59296923111e-07
-1.13780124703e-06
4.66238707533e-07
-1.24384435414e-06
4.48729085478e-07
-1.3877781193e-06
5.09794222795e-07
-1.53713696675e-06
5.93352874341e-07
-1.62402532548e-06
5.79787805943e-07
-1.68142505148e-06
5.21093217112e-07
-1.76337734377e-06
5.13629930751e-07
-1.84638987632e-06
5.27702290364e-07
-1.91170468317e-06
5.19027927164e-07
-1.96788089548e-06
4.94049349839e-07
-2.02139987062e-06
4.62937073081e-07
-2.07606084816e-06
4.31226255128e-07
-2.12782999934e-06
3.912057806e-07
-2.16396254755e-06
3.38511944696e-07
-2.20240411999e-06
3.08863674529e-07
-2.23433857847e-06
2.76136569859e-07
-2.25089716134e-06
2.40479489661e-07
-2.2745794663e-06
2.14876729862e-07
-2.31927917732e-06
1.99843971261e-07
-2.35233855826e-06
1.76311277276e-07
-2.37136899292e-06
1.58908130175e-07
-2.4054592946e-06
1.75867425222e-07
-2.44207793968e-06
1.81107325823e-07
-2.46400140188e-06
1.60822246413e-07
-2.47876072647e-06
1.33302457208e-07
-2.4890004327e-06
1.05687224505e-07
-2.49590809049e-06
7.82448897045e-08
-2.50008720181e-06
4.93019414572e-08
-2.50159849785e-06
1.79916108093e-08
-2.50027858492e-06
-1.52105110195e-08
-2.49554663484e-06
-4.89986635588e-08
-2.48650228407e-06
-8.23034834425e-08
-2.47249846236e-06
-1.15073928463e-07
-2.45335894595e-06
-1.48087870329e-07
-2.42909926769e-06
-1.82285175028e-07
-2.39964540614e-06
-2.18369549746e-07
-2.36477988346e-06
-2.56766052908e-07
-2.32420438616e-06
-2.97753411072e-07
-2.27754578131e-06
-3.41668131942e-07
-2.22429123683e-06
-3.89101359815e-07
-2.16370748712e-06
-4.4102663194e-07
-2.09457824134e-06
-4.98923196626e-07
-2.014583809e-06
-5.65139183466e-07
-1.91981063525e-06
-6.43448684425e-07
-1.80507459864e-06
-7.38674244823e-07
-1.6651334319e-06
-8.54300596963e-07
-1.4974055034e-06
-9.88419943685e-07
-1.30586506936e-06
-1.13043453018e-06
-1.10104181418e-06
-1.26371764227e-06
-8.96593366224e-07
-1.36566827852e-06
-7.02736692723e-07
-1.41677597986e-06
-5.3100293142e-07
-1.4180229821e-06
-3.95094528729e-07
-1.37274979446e-06
-2.51353831849e-07
-1.30138150373e-06
-6.92612463671e-08
-1.09315400054e-06
5.75752664387e-08
-8.74659625343e-07
1.7081378476e-07
-7.63478648982e-07
2.64820720795e-07
-6.55492003232e-07
2.96789425119e-07
-4.98171463398e-07
2.70904560202e-07
-2.98416160192e-07
2.34419274485e-07
-1.50760314003e-07
2.01468842207e-07
-7.75045191406e-08
1.82021961565e-07
-4.49743838442e-08
1.75604709002e-07
-1.58423626306e-08
1.68119673814e-07
3.65990947768e-08
1.41358689384e-07
1.04797857371e-07
9.78047248254e-08
1.56311179405e-07
5.16100872171e-08
2.06450497609e-07
2.37081530329e-07
-1.55373922558e-07
1.09899224049e-06
-2.72772125802e-07
1.2934866037e-06
-2.85562856911e-07
1.2227825936e-06
-3.23520040904e-07
8.93099712569e-07
-5.47895133139e-07
1.09204072206e-06
-6.54773723247e-07
1.22280868298e-06
-7.5792783802e-07
1.18858648213e-06
-8.68176029893e-07
1.13744501704e-06
-9.28290819669e-07
9.48983618234e-07
-9.88801347902e-07
8.92309947247e-07
-1.03109231727e-06
6.01611005644e-07
-1.13408820475e-06
5.6925814855e-07
-1.25767226616e-06
5.72342274654e-07
-1.41315043677e-06
6.65303818279e-07
-1.54063490085e-06
7.20867232466e-07
-1.61079250628e-06
6.49974407223e-07
-1.674855504e-06
5.85183719393e-07
-1.75832437375e-06
5.97126010946e-07
-1.83771488241e-06
6.07119019108e-07
-1.90625362671e-06
5.87591279256e-07
-1.96581008442e-06
5.53628225889e-07
-2.01608167495e-06
5.13228577487e-07
-2.06076066858e-06
4.75923831153e-07
-2.10752791255e-06
4.37989369185e-07
-2.14995997472e-06
3.80959252447e-07
-2.18059325827e-06
3.39511494986e-07
-2.21933910942e-06
3.148956405e-07
-2.25962919358e-06
2.80782377148e-07
-2.29330117064e-06
2.4856053567e-07
-2.32249099304e-06
2.29045159265e-07
-2.35559636414e-06
2.09427775865e-07
-2.40330909707e-06
2.06631926424e-07
-2.43334928658e-06
2.05918302262e-07
-2.45452524331e-06
2.02293375397e-07
-2.47301020454e-06
1.79316629818e-07
-2.48781845921e-06
1.48119510022e-07
-2.49874443423e-06
1.16621390173e-07
-2.50616668744e-06
8.56747689495e-08
-2.51064658113e-06
5.37889065125e-08
-2.51241147883e-06
1.97630642837e-08
-2.51123086125e-06
-1.63850716951e-08
-2.50650849644e-06
-5.3715422371e-08
-2.49749797157e-06
-9.13088263859e-08
-2.48359908245e-06
-1.28968004203e-07
-2.46447555828e-06
-1.67206894731e-07
-2.43993047413e-06
-2.06825981411e-07
-2.40974411257e-06
-2.48551674056e-07
-2.37362750919e-06
-2.92878477739e-07
-2.33127105243e-06
-3.40105259611e-07
-2.28235517044e-06
-3.90579177599e-07
-2.22643553767e-06
-4.45015605411e-07
-2.16269558076e-06
-5.04760906784e-07
-2.0895369214e-06
-5.7207622703e-07
-2.00412298424e-06
-6.50547736216e-07
-1.9022898746e-06
-7.45276697998e-07
-1.77911869965e-06
-8.61840093969e-07
-1.62981187049e-06
-1.00360139538e-06
-1.45196903128e-06
-1.16625722421e-06
-1.25157341546e-06
-1.33082618863e-06
-1.03904537611e-06
-1.47624324703e-06
-8.23450859678e-07
-1.58125895757e-06
-6.16993723738e-07
-1.62323249006e-06
-4.34567478513e-07
-1.60044472862e-06
-2.83004910962e-07
-1.52431059373e-06
-1.74807655132e-07
-1.40957276106e-06
-1.49295169544e-08
-1.25303195642e-06
1.61730043436e-07
-1.05132226399e-06
2.80781736622e-07
-8.82533401114e-07
3.86803953217e-07
-7.61517965819e-07
4.19623107755e-07
-5.30987335463e-07
3.70578449173e-07
-2.49376283155e-07
2.91683364649e-07
-7.18627694625e-08
2.21475736376e-07
-7.29912995192e-09
1.93301467846e-07
-1.67987046875e-08
2.07930570261e-07
-3.04726901567e-08
2.20469944373e-07
2.4056865849e-08
1.87662769466e-07
1.37603677812e-07
1.28455076286e-07
2.15520874998e-07
6.15737851507e-08
2.73314288963e-07
2.98660596928e-07
-1.71828175932e-07
1.27087790368e-06
-2.8492647504e-07
1.40662130005e-06
-2.66090603832e-07
1.20397560585e-06
-3.75957733025e-07
1.00299106847e-06
-5.64668653466e-07
1.28078297821e-06
-6.22419109461e-07
1.28058921224e-06
-7.10671400179e-07
1.27687165358e-06
-7.75673766945e-07
1.20247257674e-06
-8.66697800081e-07
1.04003312776e-06
-8.98751464874e-07
9.24386546989e-07
-1.00115626193e-06
7.04036780395e-07
-1.12490759369e-06
6.93035920264e-07
-1.25938956669e-06
7.06850682449e-07
-1.40342955853e-06
8.09373878312e-07
-1.4961429749e-06
8.13610448425e-07
-1.55746892598e-06
7.11326277491e-07
-1.65084226146e-06
6.78583722434e-07
-1.74364066103e-06
6.89951507956e-07
-1.82172609551e-06
6.85230498208e-07
-1.89427292648e-06
6.60162093345e-07
-1.96293777404e-06
6.22314633818e-07
-2.02239586252e-06
5.7270698678e-07
-2.06197522922e-06
5.15520759144e-07
-2.09454367123e-06
4.70573774935e-07
-2.14760348014e-06
4.34033999928e-07
-2.18623920481e-06
3.78160834094e-07
-2.2040600374e-06
3.32729669111e-07
-2.2309981222e-06
3.07732540173e-07
-2.27194852091e-06
2.89522649381e-07
-2.3229566203e-06
2.80064478943e-07
-2.37053624137e-06
2.57018386193e-07
-2.40865025204e-06
2.44756791746e-07
-2.44556408763e-06
2.42842641286e-07
-2.46785359282e-06
2.24592673041e-07
-2.48426797388e-06
1.95740115016e-07
-2.49852173646e-06
1.62381739535e-07
-2.50990425631e-06
1.28011791691e-07
-2.51786333411e-06
9.3641127567e-08
-2.52263907774e-06
5.85713603675e-08
-2.52457991432e-06
2.17100476187e-08
-2.52355212948e-06
-1.74072189692e-08
-2.5189529081e-06
-5.83094902974e-08
-2.51006449524e-06
-1.00192514074e-07
-2.49630179368e-06
-1.42726353003e-07
-2.47722201428e-06
-1.86282585515e-07
-2.45241479905e-06
-2.31629240674e-07
-2.42144613366e-06
-2.7951644697e-07
-2.38390287836e-06
-3.30417576985e-07
-2.33944856636e-06
-3.84555274342e-07
-2.28779435514e-06
-4.42228639957e-07
-2.22852861745e-06
-5.04276288595e-07
-2.16077181899e-06
-5.72512749473e-07
-2.08276637215e-06
-6.50077455946e-07
-1.99175217686e-06
-7.41558468032e-07
-1.88441113092e-06
-8.5261410595e-07
-1.75733925565e-06
-9.88907392718e-07
-1.6046316759e-06
-1.15630789837e-06
-1.41818577058e-06
-1.35269931284e-06
-1.20867104461e-06
-1.54033839545e-06
-9.88250867449e-07
-1.69666362271e-06
-7.5644840315e-07
-1.81306491601e-06
-5.2269345548e-07
-1.85698687177e-06
-3.05232267483e-07
-1.81790625482e-06
-1.21808028352e-07
-1.70772939052e-06
4.8920412879e-09
-1.53627073028e-06
9.02258298225e-08
-1.3383648873e-06
1.65847602764e-07
-1.12694542703e-06
3.54795045959e-07
-1.07148637164e-06
5.29405239224e-07
-9.36133644504e-07