/*--------------------------------*- C++ -*----------------------------------*\
| =========                 |                                                 |
| \\      /  F ield         | OpenFOAM: The Open Source CFD Toolbox           |
|  \\    /   O peration     | Version:  v1806                                 |
|   \\  /    A nd           | Web:      www.OpenFOAM.com                      |
|    \\/     M anipulation  |                                                 |
\*---------------------------------------------------------------------------*/
FoamFile
{
    version     2.0;
    format      ascii;
    class       surfaceScalarField;
    location    "674";
    object      phi;
}
// * * * * * * * * * * * * * * * * * * * * * * * * * * * * * * * * * * * * * //

dimensions      [0 3 -1 0 0 0 0];
oriented        oriented;


internalField   nonuniform List<scalar> 
12640
(
-2.44654370532e-07
2.45893888089e-07
-4.61564172838e-07
2.17916927699e-07
-6.46246795793e-07
1.85431173354e-07
-7.98774878568e-07
1.53133874914e-07
-9.10713907103e-07
1.12475653018e-07
-9.81567433499e-07
7.13702275582e-08
-1.03190980141e-06
5.08168789278e-08
-1.10552370908e-06
7.40410878629e-08
-1.20360194298e-06
9.84673350622e-08
-1.29498486134e-06
9.17233832713e-08
-1.37795190818e-06
8.3253844298e-08
-1.46187439439e-06
8.41803864473e-08
-1.5357449768e-06
7.41055110778e-08
-1.59556975883e-06
6.00424943965e-08
-1.64931459511e-06
5.39458874316e-08
-1.70974111335e-06
6.06190828999e-08
-1.77152831203e-06
6.19666562254e-08
-1.82283226319e-06
5.14733690375e-08
-1.86244669198e-06
3.97658917574e-08
-1.89896613538e-06
3.66612442278e-08
-1.94749878361e-06
4.86660890308e-08
-2.00835429655e-06
6.09848681951e-08
-2.07023850599e-06
6.20046460844e-08
-2.1276806023e-06
5.75567032154e-08
-2.17917845545e-06
5.1603131496e-08
-2.22503983751e-06
4.59628894073e-08
-2.26730030489e-06
4.23553293885e-08
-2.30502092572e-06
3.7813553927e-08
-2.3372789391e-06
3.23445810793e-08
-2.36524346297e-06
2.80493782897e-08
-2.39157101045e-06
2.64061371227e-08
-2.41530675198e-06
2.38138581179e-08
-2.43479897897e-06
1.95670869658e-08
-2.45380969247e-06
1.90846580076e-08
-2.47266243552e-06
1.89209129617e-08
-2.49017218953e-06
1.75782806238e-08
-2.50773007697e-06
1.76205669394e-08
-2.52354949596e-06
1.58794808513e-08
-2.53520658806e-06
1.17123115549e-08
-2.54322404134e-06
8.07367765372e-09
-2.55129028941e-06
8.11852548311e-09
-2.55610828573e-06
4.8695618731e-09
-2.55104686506e-06
-5.0148633818e-09
-2.53873580773e-06
-1.22654959527e-08
-2.52224430464e-06
-1.64504824087e-08
-2.50086552923e-06
-2.13377059145e-08
-2.47392870507e-06
-2.68998470829e-08
-2.44017132341e-06
-3.37203127896e-08
-2.3994170907e-06
-4.07211657573e-08
-2.35512283468e-06
-4.42609779854e-08
-2.31124302086e-06
-4.38517008451e-08
-2.26189238665e-06
-4.93221022567e-08
-2.19428095505e-06
-6.75855699764e-08
-2.11134892066e-06
-8.29054080985e-08
-2.01391538529e-06
-9.74103987609e-08
-1.89759474086e-06
-1.16298207075e-07
-1.77587665604e-06
-1.21702759824e-07
-1.6523257373e-06
-1.2354037758e-07
-1.51098589802e-06
-1.41337197645e-07
-1.35040286243e-06
-1.60590498323e-07
-1.17865375077e-06
-1.71766533391e-07
-9.74394886552e-07
-2.0427512457e-07
-6.84871694997e-07
-2.89522996343e-07
-3.83788779699e-07
-3.01060360384e-07
-1.73318872579e-07
-2.10458100254e-07
-3.46447720953e-08
-1.3866482721e-07
7.29815740239e-08
-1.07623818374e-07
1.68284945392e-07
-9.53021797545e-08
2.53073664075e-07
-8.47898288223e-08
3.23407623061e-07
-7.03329832967e-08
3.71884816371e-07
-4.84773240974e-08
3.93284296789e-07
-2.14021971208e-08
3.87461400067e-07
5.8214104402e-09
3.52911515857e-07
3.45476084779e-08
3.06640637598e-07
4.62687440013e-08
2.54219773551e-07
5.24117435505e-08
2.11100722189e-07
4.31070109285e-08
1.5296477814e-07
5.81258993348e-08
9.43977908705e-08
5.85640528125e-08
9.43877519308e-08
-1.28896394108e-07
3.75448213939e-07
-2.98538761934e-07
3.8828152168e-07
-4.60241771735e-07
3.47723019595e-07
-6.24057631377e-07
3.17435850882e-07
-8.22154239115e-07
3.11073706175e-07
-9.69265668658e-07
2.18972014838e-07
-1.05318125961e-06
1.35215122036e-07
-1.13213881028e-06
1.5344437374e-07
-1.2185996406e-06
1.85327282355e-07
-1.31089261912e-06
1.84355476063e-07
-1.39776328469e-06
1.70425074625e-07
-1.46997615556e-06
1.56651652708e-07
-1.53400767824e-06
1.38379452995e-07
-1.59360762218e-06
1.19865953729e-07
-1.65022704468e-06
1.10785678757e-07
-1.71239922339e-06
1.22990930285e-07
-1.76985596349e-06
1.19609384624e-07
-1.80257444946e-06
8.43482584261e-08
-1.8306841696e-06
6.80236618469e-08
-1.87451330613e-06
8.06250307741e-08
-1.93439565931e-06
1.08687214104e-07
-2.00637220204e-06
1.33088570901e-07
-2.07430363567e-06
1.30063830539e-07
-2.12828108613e-06
1.11646242425e-07
-2.17698707154e-06
1.0042130194e-07
-2.22591327887e-06
9.49880048717e-08
-2.26883191647e-06
8.5375739749e-08
-2.30511851723e-06
7.41898466355e-08
-2.3371930371e-06
6.45122595232e-08
-2.36574708794e-06
5.66850914614e-08
-2.39042844349e-06
5.11734021739e-08
-2.41183318378e-06
4.52949715924e-08
-2.42914829895e-06
3.6962330893e-08
-2.44674249612e-06
3.67495837066e-08
-2.46842866433e-06
4.06826584714e-08
-2.48685501477e-06
3.60683011901e-08
-2.50316683513e-06
3.39995951615e-08
-2.52221710804e-06
3.49864973914e-08
-2.54117262355e-06
3.07295276087e-08
-2.55224110105e-06
1.9195330967e-08
-2.54186358081e-06
-2.20020539501e-09
-2.51886666477e-06
-1.80788687351e-08
-2.50398956647e-06
-1.98401185624e-08
-2.49511794549e-06
-2.10949988026e-08
-2.48477863993e-06
-2.67435510189e-08
-2.47127633836e-06
-3.48022779339e-08
-2.45235662647e-06
-4.57772606289e-08
-2.42780124648e-06
-5.82413379964e-08
-2.39635836086e-06
-7.21255371246e-08
-2.3519199626e-06
-8.86686281796e-08
-2.28982181047e-06
-1.05915554104e-07
-2.22188525884e-06
-1.17231936927e-07
-2.16803147543e-06
-1.21409527357e-07
-2.10479732646e-06
-1.46115858573e-07
-2.01616002077e-06
-1.86022715841e-07
-1.9210248972e-06
-2.11416276375e-07
-1.8149051512e-06
-2.27805762501e-07
-1.68852938229e-06
-2.49908650102e-07
-1.54831519296e-06
-2.81549196088e-07
-1.38678349993e-06
-3.22132468955e-07
-1.1798161315e-06
-3.78738401633e-07
-9.43495407667e-07
-4.40599710022e-07
-6.65682295736e-07
-5.67326163325e-07
-3.88496566249e-07
-5.78236009013e-07
-1.7638098957e-07
-4.22555799753e-07
-2.81784876161e-08
-2.86861511891e-07
8.49252604005e-08
-2.207221643e-07
1.83962752356e-07
-1.94340576193e-07
2.70665373891e-07
-1.71491503233e-07
3.4000157388e-07
-1.39672982944e-07
3.82129260715e-07
-9.06096959733e-08
3.94308426301e-07
-3.35867408651e-08
3.89532402422e-07
1.05921221347e-08
3.76863849705e-07
4.72090913291e-08
3.46177182141e-07
7.69461237671e-08
3.04965257415e-07
9.36139926606e-08
2.49097398347e-07
9.89648905269e-08
1.89228882343e-07
1.17983306425e-07
1.0163845972e-07
1.46139024758e-07
1.96032107617e-07
-1.65363500645e-07
5.41418486737e-07
-2.51902663407e-07
4.75414828216e-07
-4.44809257388e-07
5.41203377e-07
-6.62721657732e-07
5.35892823045e-07
-8.60163317341e-07
5.09008715972e-07
-9.63559500408e-07
3.22771947996e-07
-1.01568452015e-06
1.87741865826e-07
-1.10311655622e-06
2.41300862013e-07
-1.20432643984e-06
2.8692232383e-07
-1.30240706546e-06
2.82772609222e-07
-1.3925676103e-06
2.60875413368e-07
-1.46850468635e-06
2.32854380104e-07
-1.53312435994e-06
2.03249411674e-07
-1.59426423636e-06
1.81245268919e-07
-1.64181881178e-06
1.58561950203e-07
-1.63508137971e-06
1.16449371722e-07
-1.59771558877e-06
8.24009933886e-08
-1.60756433026e-06
9.43372763773e-08
-1.68194965225e-06
1.42542178359e-07
-1.80932112578e-06
2.0813387992e-07
-1.93482554512e-06
2.3432965326e-07
-2.01250687566e-06
2.10905002464e-07
-2.06853727235e-06
1.86217362126e-07
-2.12716971744e-06
1.70396425292e-07
-2.18162480651e-06
1.54984407775e-07
-2.22672662552e-06
1.40194155706e-07
-2.26658139421e-06
1.25326862791e-07
-2.30291398605e-06
1.1061717756e-07
-2.33496864174e-06
9.66550559461e-08
-2.36361702713e-06
8.54210492459e-08
-2.38677846192e-06
7.44167076104e-08
-2.4069293393e-06
6.55258957093e-08
-2.42706688724e-06
5.71766963568e-08
-2.43825007177e-06
4.80084673123e-08
-2.45341623975e-06
5.59167138617e-08
-2.48131795013e-06
6.40377361155e-08
-2.50068776788e-06
5.34317973293e-08
-2.51546200709e-06
4.98217955206e-08
-2.53654263805e-06
5.18670041706e-08
-2.55318374216e-06
3.58951663661e-08
-2.56156312955e-06
6.23365676364e-09
-2.56252628187e-06
-1.70620261354e-08
-2.55524403193e-06
-2.70743415613e-08
-2.54260520195e-06
-3.36860420938e-08
-2.52597835403e-06
-4.33270789917e-08
-2.50456163522e-06
-5.61753952574e-08
-2.47841932697e-06
-7.18800455287e-08
-2.4469439052e-06
-8.967699277e-08
-2.40947340273e-06
-1.09560092816e-07
-2.36642984645e-06
-1.31675849523e-07
-2.31826938314e-06
-1.54043552406e-07
-2.26121066416e-06
-1.74258641684e-07
-2.18553019758e-06
-1.97061615325e-07
-2.09915641218e-06
-2.32462363146e-07
-2.01459313513e-06
-2.70564003275e-07
-1.92180806455e-06
-3.04182301083e-07
-1.80947560792e-06
-3.40124812482e-07
-1.67729233054e-06
-3.82083211762e-07
-1.52596771629e-06
-4.32871652261e-07
-1.35133805649e-06
-4.96760562948e-07
-1.15215170347e-06
-5.77924702786e-07
-9.00931403178e-07
-6.91813476116e-07
-6.277417626e-07
-8.40501184736e-07
-3.68000233781e-07
-8.37961155465e-07
-1.5437463539e-07
-6.36174629143e-07
-4.75163019792e-09
-4.36477452424e-07
1.160342987e-07
-3.415068248e-07
2.12570915033e-07
-2.90875208339e-07
2.90330983116e-07
-2.49256353255e-07
3.50779186177e-07
-2.0012888033e-07
3.95626352987e-07
-1.35466656768e-07
4.29255018561e-07
-6.72245668294e-08
4.42020757931e-07
-2.18249544362e-09
4.21512285808e-07
6.77099363178e-08
3.72067764871e-07
1.26383791381e-07
3.10029948165e-07
1.55643841352e-07
2.48548740242e-07
1.6043549573e-07
1.92511575776e-07
1.74012983894e-07
8.58323577404e-08
2.52828141201e-07
2.81858810264e-07
-1.19201792047e-07
6.61118230089e-07
-1.62193081231e-07
5.18803964732e-07
-3.80157211742e-07
7.59698163484e-07
-5.58588572131e-07
7.14843402777e-07
-5.76415701505e-07
5.27219114713e-07
-5.17803196727e-07
2.64360138561e-07
-7.05382795431e-07
3.75590163848e-07
-9.84655348578e-07
5.20953878177e-07
-1.16146954665e-06
4.64105838106e-07
-1.28090515572e-06
4.02533508164e-07
-1.38284018945e-06
3.63104567611e-07
-1.46842633086e-06
3.18713201475e-07
-1.52824805475e-06
2.63325336035e-07
-1.53076483663e-06
1.83992370391e-07
-1.48806135961e-06
1.16057297651e-07
-1.47397797169e-06
1.02532586815e-07
-1.53037070525e-06
1.38942787997e-07
-1.65100250754e-06
2.15112375893e-07
-1.79354463171e-06
2.8523196264e-07
-1.89189327794e-06
3.0662977784e-07
-1.95098956049e-06
2.93568122775e-07
-2.01266091475e-06
2.72709201411e-07
-2.07496958204e-06
2.48651756716e-07
-2.12953257043e-06
2.25075401403e-07
-2.17820137913e-06
2.03763186629e-07
-2.22201829467e-06
1.84112993345e-07
-2.26281631375e-06
1.66223254379e-07
-2.29949037808e-06
1.47383115333e-07
-2.33226302844e-06
1.29517675078e-07
-2.35905584828e-06
1.12299490381e-07
-2.38390292188e-06
9.93471664616e-08
-2.40132089963e-06
8.30235147881e-08
-2.41252035365e-06
6.84516717857e-08
-2.43814747656e-06
7.37068519586e-08
-2.46070037359e-06
7.85393583705e-08
-2.48034097941e-06
8.3742874748e-08
-2.51442409101e-06
8.75780442957e-08
-2.54239760258e-06
7.78556206666e-08
-2.55337610213e-06
6.29056194124e-08
-2.55797157033e-06
4.05471739441e-08
-2.56263892932e-06
1.09561150497e-08
-2.56445536399e-06
-1.51944247005e-08
-2.55921542798e-06
-3.22640908572e-08
-2.54743043074e-06
-4.54240566973e-08
-2.53059251213e-06
-6.01186374457e-08
-2.5089324664e-06
-7.77920309261e-08
-2.48241432987e-06
-9.83554519826e-08
-2.45063188217e-06
-1.21419672409e-07
-2.41319194095e-06
-1.46960952534e-07
-2.36995286928e-06
-1.74878569199e-07
-2.31975763761e-06
-2.04202982914e-07
-2.25921752466e-06
-2.34765405011e-07
-2.18619960944e-06
-2.70047773544e-07
-2.1056066101e-06
-3.13028111615e-07
-2.01728109357e-06
-3.58866049729e-07
-1.91521579712e-06
-4.06229036867e-07
-1.79536798469e-06
-4.59957956994e-07
-1.65442152579e-06
-5.23019002834e-07
-1.4885805054e-06
-5.98703866941e-07
-1.29313929072e-06
-6.92192803287e-07
-1.06291335447e-06
-8.08134681207e-07
-8.09512718138e-07
-9.45197165187e-07
-5.97644320599e-07
-1.05236054959e-06
-3.79665889427e-07
-1.05593594558e-06
-1.41403730388e-07
-8.74428822595e-07
2.83024821532e-08
-6.06179022637e-07
1.52825756382e-07
-4.66023963637e-07
2.55432913212e-07
-3.93486506486e-07
3.40946482803e-07
-3.34777404034e-07
4.15056768589e-07
-2.74252582621e-07
4.75612071015e-07
-1.96035529675e-07
5.0090292113e-07
-9.2526694994e-08
4.72425848856e-07
2.62870778258e-08
4.14363194436e-07
1.25766113212e-07
3.50322182058e-07
1.90418249339e-07
2.73256420997e-07
2.32703947514e-07
1.91436052759e-07
2.42254994531e-07
1.29943152299e-07
2.35507960748e-07
6.70844523188e-08
3.15677047567e-07
3.48949399611e-07
-2.66429675336e-08
6.88054995315e-07
-1.44200722674e-07
6.36678620391e-07
-3.21331753722e-07
9.37273192022e-07
-4.5464775039e-07
8.4856864488e-07
-4.38289592008e-07
5.11130635681e-07
-5.43260258833e-07
3.69535507083e-07
-7.76231204053e-07
6.08858099965e-07
-9.54290460279e-07
6.99364049061e-07
-1.10355345917e-06
6.13708292151e-07
-1.23683288612e-06
5.36129050653e-07
-1.35638605765e-06
4.82954890004e-07
-1.42276175545e-06
3.85349763806e-07
-1.40675659001e-06
2.47544980474e-07
-1.38386794906e-06
1.61295667734e-07
-1.42629379521e-06
1.58655768706e-07
-1.52670250506e-06
2.0310698753e-07
-1.65959398899e-06
2.7199725283e-07
-1.77447246496e-06
3.30152062963e-07
-1.84035102054e-06
3.51266372151e-07
-1.8881986459e-06
3.54626881683e-07
-1.94883357942e-06
3.54345380192e-07
-2.01323027401e-06
3.37240429676e-07
-2.07280972739e-06
3.08356091743e-07
-2.12585830687e-06
2.78241052821e-07
-2.17340249361e-06
2.5141615078e-07
-2.2180406207e-06
2.28854452049e-07
-2.25734194389e-06
2.05620090024e-07
-2.29466879744e-06
1.8480272183e-07
-2.32544165435e-06
1.60380010128e-07
-2.35207666257e-06
1.39021392951e-07
-2.36894508717e-06
1.16297443835e-07
-2.39083062457e-06
1.04985770295e-07
-2.42465369079e-06
1.02347653112e-07
-2.44501336443e-06
9.41365880121e-08
-2.47181176296e-06
1.05404274182e-07
-2.50644768121e-06
1.18444196463e-07
-2.53116120706e-06
1.12354815065e-07
-2.54804051923e-06
9.47968814702e-08
-2.55771866011e-06
7.26427454045e-08
-2.56310187052e-06
4.59874804564e-08
-2.56742596763e-06
1.53342643737e-08
-2.56902189245e-06
-1.35461575709e-08
-2.56457475356e-06
-3.66614076738e-08
-2.55354231803e-06
-5.64076731904e-08
-2.53688411986e-06
-7.67299758426e-08
-2.51513318275e-06
-9.94970568154e-08
-2.48834529444e-06
-1.25099570274e-07
-2.45622937875e-06
-1.5349298536e-07
-2.41837751588e-06
-1.84772291876e-07
-2.37420103658e-06
-2.19015357487e-07
-2.32224283875e-06
-2.56123207606e-07
-2.26023107972e-06
-2.96740559656e-07
-2.18742281826e-06
-3.42822684383e-07
-2.10531784704e-06
-3.95103471893e-07
-2.01209950429e-06
-4.52059362818e-07
-1.90284017375e-06
-5.15467405292e-07
-1.77278562436e-06
-5.89994253359e-07
-1.61672255966e-06
-6.7906533163e-07
-1.429686143e-06
-7.85723373206e-07
-1.21022144673e-06
-9.11636837262e-07
-9.67805726053e-07
-1.05053049397e-06
-7.37436159772e-07
-1.17555214869e-06
-5.55883053467e-07
-1.23390374269e-06
-3.38137482213e-07
-1.2736726707e-06
-1.2128236026e-07
-1.09127951212e-06
5.88595275297e-08
-7.86313465959e-07
2.02176333226e-07
-6.09344660368e-07
3.1627663352e-07
-5.07590265642e-07
4.10619585046e-07
-4.29132725268e-07
4.96969554534e-07
-3.60616501657e-07
5.5576900555e-07
-2.54848609822e-07
5.44622414265e-07
-8.13902449495e-08
4.88911589489e-07
8.19895780058e-08
4.21396128014e-07
1.93273875855e-07
3.39684297281e-07
2.72124606444e-07
2.47944467059e-07
3.24441489452e-07
1.7896403543e-07
3.11231683626e-07
1.15343098162e-07
2.99123697092e-07
4.95218264693e-08
3.81508185247e-07
3.98465830317e-07
-1.41967566334e-08
7.02471439853e-07
-1.74150300193e-07
7.9690916034e-07
-2.75531048172e-07
1.03902180219e-06
-3.41938084236e-07
9.15292749825e-07
-3.41195200347e-07
5.10575754534e-07
-5.87564158466e-07
6.16144956482e-07
-8.16946808471e-07
8.38560830564e-07
-9.30179563027e-07
8.12916988135e-07
-1.05675826759e-06
7.40600896795e-07
-1.17519467747e-06
6.54877179266e-07
-1.23892567556e-06
5.46964520957e-07
-1.2022113566e-06
3.48849934872e-07
-1.1994375987e-06
2.44947492762e-07
-1.2783273632e-06
2.40350200598e-07
-1.40625718632e-06
2.8675262844e-07
-1.56730189273e-06
3.64325132539e-07
-1.70250458631e-06
4.07374042451e-07
-1.77280449329e-06
4.00618993211e-07
-1.81953139916e-06
3.98151563276e-07
-1.88482852681e-06
4.20076041868e-07
-1.95140537045e-06
4.21066445911e-07
-2.01063131843e-06
3.96600936279e-07
-2.06700313647e-06
3.64853246006e-07
-2.12152848415e-06
3.32882291368e-07
-2.17035661852e-06
3.00353264216e-07
-2.20725675061e-06
2.65855698262e-07
-2.24753538277e-06
2.45995542378e-07
-2.28285813717e-06
2.20217653679e-07
-2.31439448403e-06
1.92004608361e-07
-2.33066227398e-06
1.55373191157e-07
-2.34927635193e-06
1.34991167961e-07
-2.37492399626e-06
1.30707761327e-07
-2.40025974429e-06
1.2775290294e-07
-2.44988296021e-06
1.43827392341e-07
-2.49434516505e-06
1.49933335497e-07
-2.52198500322e-06
1.46149696281e-07
-2.5403658252e-06
1.30799740069e-07
-2.55387322909e-06
1.08366071344e-07
-2.56325071778e-06
8.20798240264e-08
-2.56954071225e-06
5.23342056011e-08
-2.57393176442e-06
1.97796960546e-08
-2.57526490841e-06
-1.21608349957e-08
-2.5711757633e-06
-4.06995624708e-08
-2.56077238145e-06
-6.67613235259e-08
-2.54448221223e-06
-9.29712949566e-08
-2.52278512997e-06
-1.21146664855e-07
-2.49578865019e-06
-1.52049642413e-07
-2.46323116659e-06
-1.86005495739e-07
-2.42461543956e-06
-2.23344066677e-07
-2.37914838812e-06
-2.64439685079e-07
-2.32548496417e-06
-3.09744898917e-07
-2.26205372615e-06
-3.60132336561e-07
-2.18804820225e-06
-4.16791993217e-07
-2.10275457215e-06
-4.80365344179e-07
-2.00295429823e-06
-5.51832399367e-07
-1.88343265764e-06
-6.3496418758e-07
-1.7387350753e-06
-7.34668062962e-07
-1.56385144436e-06
-8.53925614199e-07
-1.35711726539e-06
-9.92433230059e-07
-1.12584077812e-06
-1.14288934335e-06
-8.90743969803e-07
-1.28560486678e-06
-6.78280013499e-07
-1.38799935149e-06
-4.88188316808e-07
-1.42398870689e-06
-2.84625204899e-07
-1.47723745091e-06
-7.57878177963e-08
-1.30011205462e-06
9.44540920039e-08
-9.56557268191e-07
2.53597329901e-07
-7.68485065193e-07
3.92845532706e-07
-6.4684885571e-07
5.1304111956e-07
-5.49338339723e-07
6.09544317547e-07
-4.57132367242e-07
6.34922451681e-07
-2.8023869674e-07
5.93074586196e-07
-3.95520040036e-08
5.28781266645e-07
1.46273914219e-07
4.43155957409e-07
2.78891192e-07
3.39979186085e-07
3.75295034018e-07
2.46538478948e-07
4.17876432414e-07
1.6805700114e-07
3.8971053958e-07
1.01568899784e-07
3.65613300346e-07
4.7065457692e-08
4.35998545653e-07
4.45530990238e-07
-6.81244574161e-08
7.70790817526e-07
-2.50487198393e-07
9.79541552996e-07
-3.39829559844e-07
1.12868446757e-06
-3.07296780321e-07
8.83027567104e-07
-4.08960639218e-07
6.12442641749e-07
-6.72315261828e-07
8.7978055468e-07
-8.02152720193e-07
9.68702947713e-07
-9.01551254875e-07
9.12613921155e-07
-9.94469072955e-07
8.3381874208e-07
-1.11533517563e-06
7.76024156454e-07
-1.11479986507e-06
5.46666670985e-07
-1.09843842501e-06
3.32663622582e-07
-1.17782617597e-06
3.24499229053e-07
-1.28916768869e-06
3.51852936329e-07
-1.44916641295e-06
4.46927248545e-07
-1.59971605739e-06
5.15060855839e-07
-1.67854982236e-06
4.86385053746e-07
-1.72966158042e-06
4.51895568627e-07
-1.80747373415e-06
4.76123714161e-07
-1.88354332213e-06
4.96300055481e-07
-1.94664260147e-06
4.84310499306e-07
-2.00617197395e-06
4.56265482593e-07
-2.06376785767e-06
4.22573134561e-07
-2.11331868138e-06
3.82549006427e-07
-2.15440797262e-06
3.41551040607e-07
-2.19436267519e-06
3.05910835687e-07
-2.22575384723e-06
2.77482254774e-07
-2.2618658558e-06
2.56419451821e-07
-2.28724904349e-06
2.17473811128e-07
-2.30554306554e-06
1.73748307628e-07
-2.33558451077e-06
1.65109358928e-07
-2.37100355983e-06
1.66198651936e-07
-2.41841491144e-06
1.75232556454e-07
-2.46375718793e-06
1.89237206093e-07
-2.5060268314e-06
1.92270581811e-07
-2.53161591726e-06
1.71805103464e-07
-2.54792174241e-06
1.47169633957e-07
-2.56054729457e-06
1.21053442143e-07
-2.5703866006e-06
9.19783788979e-08
-2.57747846116e-06
5.94830171529e-08
-2.58206098889e-06
2.44169945519e-08
-2.58325322573e-06
-1.09152739418e-08
-2.57935553876e-06
-4.45451120041e-08
-2.56942893767e-06
-7.6636486372e-08
-2.55352519849e-06
-1.08824454972e-07
-2.53193309328e-06
-1.42688812707e-07
-2.50469542578e-06
-1.79238177616e-07
-2.47152229132e-06
-2.19130101754e-07
-2.43186986395e-06
-2.62948717396e-07
-2.38492048861e-06
-3.11341975144e-07
-2.32949489335e-06
-3.65125221185e-07
-2.26420597382e-06
-4.25378517488e-07
-2.18758744373e-06
-4.93372249449e-07
-2.09723754325e-06
-5.70681697434e-07
-1.98873709211e-06
-6.60302471725e-07
-1.85649141801e-06
-7.67180382668e-07
-1.69557428769e-06
-8.95556039004e-07
-1.50404344452e-06
-1.04542880535e-06
-1.28727267418e-06
-1.20917861399e-06
-1.05966731003e-06
-1.37047177737e-06
-8.43044571766e-07
-1.5022094554e-06
-6.48130637e-07
-1.58290540154e-06
-4.45124963439e-07
-1.62699487497e-06
-2.80128209708e-07
-1.6422322207e-06
-4.28519977732e-08
-1.53738980555e-06
1.58158538878e-07
-1.15756251144e-06
3.39879182453e-07
-9.50214764308e-07
5.1123604427e-07
-8.18209570316e-07
6.50360127614e-07
-6.88471668313e-07
7.25244742634e-07
-5.32026687681e-07
7.21018818341e-07
-2.7602125744e-07
6.78519795766e-07
2.9375900753e-09
5.98678106714e-07
2.26105838326e-07
4.80314965005e-07
3.97244819636e-07
3.49591550786e-07
5.06009763688e-07
2.49679373493e-07
5.17781804624e-07
1.5512321293e-07
4.84258831886e-07
8.09351896573e-08
4.39788906668e-07
4.07154502399e-08
4.76216315153e-07
4.86236439984e-07
-1.19693825503e-07
8.90704248453e-07
-2.7524947145e-07
1.13536773022e-06
-3.22028209266e-07
1.17572082397e-06
-2.4462300241e-07
8.05803120839e-07
-4.52623072697e-07
8.20659711152e-07
-6.65725174696e-07
1.09317156627e-06
-7.69255389927e-07
1.07251772462e-06
-8.75974126366e-07
1.01961734272e-06
-9.16715120393e-07
8.74828282367e-07
-9.64887704691e-07
8.24449294818e-07
-9.53358032255e-07
5.35311088948e-07
-1.06333221749e-06
4.42799573437e-07
-1.16765836541e-06
4.28981958361e-07
-1.31745777838e-06
5.01822604963e-07
-1.47963177971e-06
6.09292082929e-07
-1.56976779424e-06
6.05384647996e-07
-1.62353413485e-06
5.40323456601e-07
-1.71139791211e-06
5.39925397125e-07
-1.80350446513e-06
5.68393588607e-07
-1.87439250692e-06
5.6734396365e-07
-1.93489311399e-06
5.44956493987e-07
-1.9930813472e-06
5.14586473017e-07
-2.05365104568e-06
4.83267193495e-07
-2.11105893499e-06
4.40073371871e-07
-2.14808169752e-06
3.78678908966e-07
-2.19063274321e-06
3.48562468576e-07
-2.22441367687e-06
3.11357281465e-07
-2.23854686521e-06
2.7064148604e-07
-2.26313572027e-06
2.42144643586e-07
-2.32006613952e-06
2.30757187534e-07
-2.3606778041e-06
2.05796115322e-07
-2.38280578933e-06
1.88396405935e-07
-2.43074515139e-06
2.23240414353e-07
-2.48396152905e-06
2.4252218634e-07
-2.51543729691e-06
2.23814078781e-07
-2.53787801117e-06
1.9431187931e-07
-2.55500096731e-06
1.6435655198e-07
-2.56842687496e-06
1.34541036355e-07
-2.57901228601e-06
1.02623259234e-07
-2.5868469759e-06
6.73750292514e-08
-2.59174453143e-06
2.93701191831e-08
-2.59295397324e-06
-9.65153181428e-09
-2.58924732245e-06
-4.81981465989e-08
-2.57973291011e-06
-8.60977640222e-08
-2.56418943159e-06
-1.24315004807e-07
-2.54267453125e-06
-1.64150972499e-07
-2.5151024497e-06
-2.06757526185e-07
-2.48113051071e-06
-2.5304932769e-07
-2.44021511212e-06
-3.03811566069e-07
-2.39159323367e-06
-3.59912415979e-07
-2.33416585839e-06
-4.22503194773e-07
-2.26637827505e-06
-4.93120958058e-07
-2.18589964688e-06
-5.73810868885e-07
-2.0889799315e-06
-6.67566833588e-07
-1.970409809e-06
-7.78838579481e-07
-1.82511366039e-06
-9.12441474905e-07
-1.65064292207e-06
-1.06999662307e-06
-1.44892711815e-06
-1.24711403713e-06
-1.22935651281e-06
-1.42872875534e-06
-1.00757174812e-06
-1.59223906458e-06
-7.9979043452e-07
-1.70997812314e-06
-6.03692705935e-07
-1.77899653596e-06
-4.22756499311e-07
-1.80793252693e-06
-2.73814820263e-07
-1.79118382952e-06
-6.39401068768e-08
-1.74726969718e-06
2.27256785201e-07
-1.44877247889e-06
4.42282378267e-07
-1.1652376227e-06
6.27292474726e-07
-1.00322348315e-06
7.67141120678e-07
-8.28323817216e-07
8.34396719401e-07
-5.99288027037e-07
8.46979618038e-07
-2.88613794473e-07
8.14103695077e-07
3.58029088505e-08
7.00663437446e-07
3.39534358916e-07
5.30925868609e-07
5.66971370012e-07
3.64939584429e-07
6.71984655326e-07
2.33400160428e-07
6.49308981052e-07
1.27937101319e-07
5.89709430912e-07
4.68812821583e-08
5.20836486105e-07
1.69133230028e-08
5.06162612794e-07
5.03140251597e-07
-1.51338707638e-07
1.04226090627e-06
-2.68474290664e-07
1.25276683072e-06
-2.70126263472e-07
1.17760652978e-06
-2.99836224132e-07
8.35694658283e-07
-5.2495485002e-07
1.04601261027e-06
-6.2838533641e-07
1.19687234825e-06
-7.25905553697e-07
1.17030816407e-06
-8.29766363602e-07
1.12373155629e-06
-8.78524153527e-07
9.23819236549e-07
-9.28652326985e-07
8.74804909297e-07
-9.62223484533e-07
5.6904185255e-07
-1.06168000895e-06
5.42407319207e-07
-1.18395110046e-06
5.51413057523e-07
-1.34794280583e-06
6.65995793679e-07
-1.48483098299e-06
7.4637481818e-07
-1.55110235938e-06
6.71842263321e-07
-1.61334570487e-06
6.0273849657e-07
-1.70318297866e-06
6.29931013529e-07
-1.78919624792e-06
6.54571391712e-07
-1.86234977346e-06
6.40652542338e-07
-1.92567442165e-06
6.08423646341e-07
-1.97885290359e-06
5.67898368433e-07
-2.02618240995e-06
5.30722865981e-07
-2.07602198458e-06
4.90024789975e-07
-2.12067199306e-06
4.234340145e-07
-2.15277274635e-06
3.80762380092e-07
-2.19702763154e-06
3.55702357282e-07
-2.24403607944e-06
3.17737353724e-07
-2.28399336031e-06
2.82183235634e-07
-2.31759178646e-06
2.64431533951e-07
-2.35845948871e-06
2.46734229792e-07
-2.42390584956e-06
2.53912252464e-07
-2.46569404831e-06
2.6509748044e-07
-2.4954102856e-06
2.72306953911e-07
-2.52201979253e-06
2.50491371366e-07
-2.54462310109e-06
2.16981192138e-07
-2.56299857012e-06
1.82795783479e-07
-2.57752710144e-06
1.49131138948e-07
-2.58892383819e-06
1.14079554831e-07
-2.59748464065e-06
7.59937080208e-08
-2.60289646256e-06
3.48385228579e-08
-2.60437706584e-06
-8.1151133133e-09
-2.60095447213e-06
-5.15653612109e-08
-2.59185225601e-06
-9.5144536434e-08
-2.57665878729e-06
-1.3945270986e-07
-2.55516918164e-06
-1.85584145696e-07
-2.5271453912e-06
-2.34724074736e-07
-2.49220304271e-06
-2.8793382474e-07
-2.44982513999e-06
-3.46131769847e-07
-2.39931960903e-06
-4.10361859192e-07
-2.33959968775e-06
-4.82170907294e-07
-2.26879756738e-06
-5.63876735806e-07
-2.18375146933e-06
-6.58818033751e-07
-2.079745098e-06
-7.71536561347e-07
-1.95145231718e-06
-9.070931082e-07
-1.79537493099e-06
-1.06848570942e-06
-1.61198383018e-06
-1.25335071582e-06
-1.40288157519e-06
-1.45619867384e-06
-1.17880316095e-06
-1.65278983078e-06
-9.58768539425e-07
-1.81225942748e-06
-7.60063325468e-07
-1.90867348261e-06
-5.66931047599e-07
-1.97212968718e-06
-3.80088682392e-07
-1.99478821487e-06
-2.06029721202e-07
-1.96526073295e-06
-6.08146236689e-08
-1.89251195934e-06
2.24851482388e-07
-1.73444358883e-06
5.59575537603e-07
-1.49996868232e-06
7.5689493471e-07
-1.20054122855e-06
8.95840212826e-07
-9.67269545804e-07
9.79091238716e-07
-6.82545024781e-07
1.03954408101e-06
-3.4907721292e-07
1.02171294798e-06
5.36209445743e-08
8.46200252772e-07
5.15034450285e-07
5.89223259356e-07
8.23934615428e-07
3.55615150571e-07
9.05577883663e-07
1.7455813695e-07
8.30350275981e-07
6.05419760382e-08
7.03709929464e-07
-6.43912318161e-09
5.87795433721e-07
-1.91982277833e-08
5.18904202777e-07
4.83929408754e-07
-1.69994859546e-07
1.21249192057e-06
-2.80827704773e-07
1.36384959613e-06
-2.50039972728e-07
1.14702694786e-06
-3.53453370344e-07
9.39302136197e-07
-5.43898663114e-07
1.23670882226e-06
-5.93296765717e-07
1.24652072709e-06
-6.76366516377e-07
1.2536299931e-06
-7.31296782251e-07
1.17888987115e-06
-8.1531702919e-07
1.00803820592e-06
-8.34147427987e-07
8.93813595822e-07
-9.32345467504e-07
6.67388351692e-07
-1.05321230745e-06
6.63424348147e-07
-1.18729023903e-06
6.85651942354e-07
-1.33798319299e-06
8.1687852578e-07
-1.43093837489e-06
8.39522119613e-07
-1.48491249412e-06
7.2598907443e-07
-1.5820149363e-06
7.00010910087e-07
-1.68203855744e-06
7.30124870833e-07
-1.76548129869e-06
7.38177901585e-07
-1.84274045551e-06
7.18064615658e-07
-1.91566236375e-06
6.81489644033e-07
-1.9789746739e-06
6.31346122053e-07
-2.01938988109e-06
5.7125979623e-07
-2.05214100046e-06
5.22888539459e-07
-2.1112705447e-06
4.82665894401e-07
-2.15104893128e-06
4.20635843183e-07
-2.16653389243e-06
3.71279506883e-07
-2.19493806756e-06
3.46225932901e-07
-2.24535110259e-06
3.32674686644e-07
-2.31043029234e-06
3.295837028e-07
-2.37154554195e-06
3.07918245913e-07
-2.42194851699e-06
3.04382430904e-07
-2.4743404172e-06
3.17557878834e-07
-2.50619466445e-06
3.04230123866e-07
-2.53054084464e-06
2.74905014624e-07
-2.55287067125e-06
2.39376400323e-07
-2.57228730691e-06
2.02275758928e-07
-2.58798246271e-06
1.64887828572e-07
-2.60022007657e-06
1.26377144664e-07
-2.60945205409e-06
8.52844018813e-08
-2.61547859244e-06
4.09228877576e-08
-2.61748287279e-06
-6.05352738612e-09
-2.61453479307e-06
-5.44559858998e-08
-2.60591065236e-06
-1.03710563098e-07
-2.59109670446e-06
-1.54207348002e-07
-2.56964818607e-06
-2.06971829597e-07
-2.54111124793e-06
-2.63198698995e-07
-2.50504653489e-06
-3.23935367035e-07
-2.4610216741e-06
-3.90094223639e-07
-2.40846426724e-06
-4.62860084444e-07
-2.34631875534e-06
-5.44262937576e-07
-2.27247273362e-06
-6.37677761609e-07
-2.18315654227e-06
-7.48097906843e-07
-2.07307901425e-06
-8.81575181511e-07
-1.93728420295e-06
-1.04284408654e-06
-1.7740326002e-06
-1.2316967619e-06
-1.58536397497e-06
-1.44199468389e-06
-1.36358637842e-06
-1.67795107259e-06
-1.12760943912e-06
-1.88875527183e-06
-9.11910506741e-07
-2.02796032324e-06
-7.41543806898e-07
-2.07903118643e-06
-5.42138642016e-07
-2.17154051448e-06
-3.13441231705e-07
-2.22350634724e-06
-9.09625560079e-08
-2.1877755345e-06
8.9871239176e-08
-2.07337340281e-06
2.94314859185e-07
-1.93891793642e-06
5.85258286058e-07
-1.79092351301e-06
8.59160393236e-07
-1.47444662934e-06
1.00953412384e-06
-1.11764477541e-06
1.15129861048e-06
-8.24318085782e-07
1.31489390336e-06
-5.12685952778e-07