/*--------------------------------*- C++ -*----------------------------------*\
| =========                 |                                                 |
| \\      /  F ield         | OpenFOAM: The Open Source CFD Toolbox           |
|  \\    /   O peration     | Version:  v1806                                 |
|   \\  /    A nd           | Web:      www.OpenFOAM.com                      |
|    \\/     M anipulation  |                                                 |
\*---------------------------------------------------------------------------*/
FoamFile
{
    version     2.0;
    format      ascii;
    class       surfaceScalarField;
    location    "464";
    object      phia;
}
// * * * * * * * * * * * * * * * * * * * * * * * * * * * * * * * * * * * * * //

dimensions      [0 3 -1 0 0 0 0];
oriented        oriented;


internalField   nonuniform List<scalar> 
12640
(
1.31602002623e-07
-1.32654772458e-07
2.52083325525e-07
-1.21357095187e-07
3.58512651363e-07
-1.07089422487e-07
4.48548095117e-07
-9.05789390974e-08
5.14747881242e-07
-6.6678501558e-08
5.55525018612e-07
-4.12113048849e-08
5.84082857448e-07
-2.89372227486e-08
6.30626390473e-07
-4.68726708285e-08
6.9708038304e-07
-6.67469932459e-08
7.60639616951e-07
-6.38045238294e-08
8.19900388368e-07
-5.945712063e-08
8.83577690848e-07
-6.38404791524e-08
9.42724590943e-07
-5.92833155064e-08
9.93374040897e-07
-5.07603366833e-08
1.04101552847e-06
-4.77294292537e-08
1.09629777404e-06
-5.53495886942e-08
1.15433926543e-06
-5.8092283874e-08
1.20512508393e-06
-5.08213114073e-08
1.24682401525e-06
-4.17229264592e-08
1.28628407033e-06
-3.94736036047e-08
1.33866323871e-06
-5.23842924201e-08
1.40563118917e-06
-6.69639718848e-08
1.47672735267e-06
-7.10855093884e-08
1.54648105205e-06
-6.97359476069e-08
1.61238762642e-06
-6.58847461745e-08
1.67442286523e-06
-6.20081585872e-08
1.73520760423e-06
-6.07552165724e-08
1.79350934383e-06
-5.82684589847e-08
1.84781609111e-06
-5.42729268741e-08
1.89911380891e-06
-5.12622577065e-08
1.95077640944e-06
-5.1628928753e-08
2.00152861334e-06
-5.07188681263e-08
2.04902542897e-06
-4.74650521675e-08
2.09849912652e-06
-4.94435536807e-08
2.14948249604e-06
-5.09569286222e-08
2.2008872097e-06
-5.13803022999e-08
2.25529511644e-06
-5.43880491452e-08
2.30898877848e-06
-5.36774764263e-08
2.35936052838e-06
-5.03594235101e-08
2.40960541255e-06
-5.02353726648e-08
2.46791131893e-06
-5.82992113557e-08
2.5250428239e-06
-5.71268534265e-08
2.56565175636e-06
-4.06055031174e-08
2.59545452279e-06
-2.98002213845e-08
2.62080221303e-06
-2.53447403665e-08
2.64095486029e-06
-2.01499466509e-08
2.65561199471e-06
-1.46521632474e-08
2.66292154574e-06
-7.30359922085e-09
2.6635558219e-06
-6.24097987213e-10
2.66620213653e-06
-2.63501761319e-09
2.68095550643e-06
-1.47344068718e-08
2.69436917982e-06
-1.33934668103e-08
2.67402366388e-06
2.03714023498e-08
2.63316555367e-06
4.08883362401e-08
2.57318377698e-06
6.00197507951e-08
2.47977428309e-06
9.34518904015e-08
2.39460363455e-06
8.52304280039e-08
2.33750963135e-06
5.71735592267e-08
2.26722420291e-06
7.0388498845e-08
2.18544737695e-06
8.19155110627e-08
2.14494997515e-06
4.06615300148e-08
2.08518581459e-06
5.99693350012e-08
1.87676191868e-06
2.08654712496e-07
1.633728382e-06
2.43192245641e-07
1.4603373732e-06
1.7350313134e-07
1.34795628458e-06
1.12467520839e-07
1.24808210657e-06
9.99616183563e-08
1.14937924954e-06
9.88015232883e-08
1.04660754722e-06
1.028903119e-07
9.34721544109e-07
1.12020872324e-07
8.19258229153e-07
1.15609359614e-07
7.07092871437e-07
1.12311293291e-07
5.99803596485e-07
1.07428133414e-07
4.85957541651e-07
1.1398292109e-07
3.86611095989e-07
9.94749649085e-08
2.98899477503e-07
8.78419041223e-08
2.35690652758e-07
6.33419842741e-08
1.64521397343e-07
7.12952754863e-08
9.98515225831e-08
6.48812535727e-08
9.99849372006e-08
6.84359862336e-08
-2.01664140791e-07
1.57829118092e-07
-2.11379212115e-07
2.45126774924e-07
-1.94900525213e-07
3.36386575007e-07
-1.82263645881e-07
4.53510899516e-07
-1.84226525584e-07
5.44915313339e-07
-1.33030391585e-07
5.997359438e-07
-8.4148230901e-08
6.52553468662e-07
-1.00043149552e-07
7.10271137307e-07
-1.24765996479e-07
7.7388722332e-07
-1.276701477e-07
8.36256306367e-07
-1.2202935024e-07
8.89580768336e-07
-1.17330868292e-07
9.39521181787e-07
-1.09359254295e-07
9.89413343873e-07
-1.00763284285e-07
1.03985448314e-06
-9.82584606836e-08
1.09749451222e-06
-1.13058252577e-07
1.15102807163e-06
-1.11673023681e-07
1.18276676988e-06
-8.25932617925e-08
1.21186582875e-06
-7.08421500845e-08
1.25706092828e-06
-8.46809101095e-08
1.32067932396e-06
-1.16004744155e-07
1.40049844597e-06
-1.46778387316e-07
1.47928886046e-06
-1.49861410193e-07
1.54514109581e-06
-1.35569396684e-07
1.60777544196e-06
-1.28493057399e-07
1.67378585108e-06
-1.27990416935e-07
1.73531688787e-06
-1.22252377545e-07
1.7915301009e-06
-1.14447338988e-07
1.84530175275e-06
-1.08006801722e-07
1.89721312721e-06
-1.03137224877e-07
1.94633890247e-06
-1.00717484324e-07
1.99329487127e-06
-9.76395314896e-08
2.03700438226e-06
-9.11408789721e-08
2.08410278286e-06
-9.65104394019e-08
2.13949597263e-06
-1.06321143361e-07
2.1917248992e-06
-1.03583849185e-07
2.2441064481e-06
-1.06748480663e-07
2.30399457794e-06
-1.13547832704e-07
2.36745377721e-06
-1.13806253125e-07
2.42225868859e-06
-1.05029510075e-07
2.44016721277e-06
-7.62018592713e-08
2.43681076128e-06
-5.37641373793e-08
2.454308504e-06
-5.81013045523e-08
2.4880667897e-06
-6.35538714462e-08
2.52454184622e-06
-6.18188342287e-08
2.56151603713e-06
-5.71185499487e-08
2.59443187108e-06
-4.75655072865e-08
2.62306644298e-06
-3.59289902708e-08
2.644958146e-06
-2.25087282405e-08
2.6463024385e-06
-3.9636038079e-09
2.61562202012e-06
1.59603821738e-08
2.58033362391e-06
2.19191658156e-08
2.59851881626e-06
2.21153194615e-09
2.6139967321e-06
2.54484063611e-08
2.58301514505e-06
9.1043688588e-08
2.56264733712e-06
1.13878152484e-07
2.54367397654e-06
1.04273689622e-07
2.50057324116e-06
1.00368517088e-07
2.4594904374e-06
1.11590008866e-07
2.40684207328e-06
1.34717947469e-07
2.24068588053e-06
2.0698158232e-07
2.06209793374e-06
2.38733689271e-07
1.8637077461e-06
4.07243206171e-07
1.63353579827e-06
4.73531029487e-07
1.43069824938e-06
3.76446299522e-07
1.26388906893e-06
2.79363748836e-07
1.1670369167e-06
1.96896096185e-07
1.09870920223e-06
1.67227812635e-07
1.01534224984e-06
1.86370830786e-07
9.09494872443e-07
2.18003039555e-07
7.88791796825e-07
2.36455626744e-07
6.67987367709e-07
2.33255108987e-07
5.66684857342e-07
2.08868038282e-07
4.89219166266e-07
1.91593986327e-07
4.12748438847e-07
1.76094064711e-07
3.40927866467e-07
1.59808873936e-07
2.64341973217e-07
1.40081858631e-07
1.94799709918e-07
1.41012485188e-07
1.02201961474e-07
1.57660240345e-07
2.02351956758e-07
8.91534316519e-08
-2.91335706476e-07
1.3126170859e-07
-2.54010615091e-07
2.39648855921e-07
-3.03795709422e-07
3.6710289321e-07
-3.10192608806e-07
4.82421158841e-07
-2.99968490859e-07
5.39804776588e-07
-1.90749392338e-07
5.69910721379e-07
-1.1458209488e-07
6.27995530907e-07
-1.58469910877e-07
6.95985161996e-07
-1.93057237044e-07
7.63421466785e-07
-1.95355141288e-07
8.27265254975e-07
-1.86075189938e-07
8.82766040346e-07
-1.72996115519e-07
9.32687244506e-07
-1.59415508642e-07
9.8334854833e-07
-1.51534909783e-07
1.02461583992e-06
-1.39612313196e-07
1.01971776094e-06
-1.08222586011e-07
9.88928451616e-07
-8.09250917646e-08
9.99461829119e-07
-9.31542999007e-08
1.06615604e-06
-1.37555643517e-07
1.18722071057e-06
-2.0575674671e-07
1.31546634026e-06
-2.44253177666e-07
1.40143644673e-06
-2.32741711516e-07
1.4672921029e-06
-2.15703631774e-07
1.53908033331e-06
-2.07336893912e-07
1.60888669251e-06
-1.98274442455e-07
1.66994623588e-06
-1.89019699489e-07
1.72721775874e-06
-1.7949154287e-07
1.78309746609e-06
-1.70291263797e-07
1.83636203253e-06
-1.61235241006e-07
1.88826492263e-06
-1.55002651448e-07
1.93498978897e-06
-1.47406293015e-07
1.97974769191e-06
-1.4236330368e-07
2.02716382301e-06
-1.38523552101e-07
2.06338520232e-06
-1.32700688601e-07
2.10807761975e-06
-1.50986464666e-07
2.17541983092e-06
-1.70902028513e-07
2.23179529865e-06
-1.63103776964e-07
2.28513628447e-06
-1.66873606072e-07
2.35534470409e-06
-1.84002905252e-07
2.42260716555e-06
-1.72284178665e-07
2.48040801835e-06
-1.33997295766e-07
2.52957771177e-06
-1.02931468044e-07
2.56597641501e-06
-9.44979372151e-08
2.59517424892e-06
-9.27515802736e-08
2.62061302644e-06
-8.72564221743e-08
2.64131199104e-06
-7.78171833178e-08
2.65824383032e-06
-6.44942284386e-08
2.67090751238e-06
-4.85891956811e-08
2.67857354306e-06
-3.01669990679e-08
2.68330302099e-06
-8.68388609071e-09
2.68725877959e-06
1.20203135862e-08
2.68355030519e-06
2.56476147762e-08
2.6476364298e-06
3.81543017093e-08
2.59923235993e-06
7.38876685537e-08
2.57943315705e-06
1.10890301978e-07
2.56606905113e-06
1.27301937078e-07
2.53077797648e-06
1.39640884869e-07
2.47688297909e-06
1.54355785264e-07
2.41207601684e-06
1.76511357159e-07
2.32876185203e-06
2.18160497976e-07
2.2411704384e-06
2.94711083278e-07
2.06233426232e-06
4.17720088436e-07
1.77256790596e-06
6.97167599965e-07
1.46131216385e-06
7.84903829547e-07
1.27078832365e-06
5.67059808973e-07
1.1991587517e-06
3.51071332108e-07
1.12057778905e-06
2.75556197778e-07
1.02581746243e-06
2.62073199466e-07
9.25631641842e-07
2.86658817327e-07
8.16748444957e-07
3.27006056005e-07
7.13109424176e-07
3.4022135098e-07
6.32260723028e-07
3.14234218647e-07
5.61750611996e-07
2.79514916152e-07
4.88596428498e-07
2.6488839901e-07
4.02811240112e-07
2.62020074263e-07
3.15620965942e-07
2.47142764813e-07
2.40083559458e-07
2.157572139e-07
1.81578210229e-07
1.99646816804e-07
7.8608019863e-08
2.60857550021e-07
2.81008632418e-07
6.1814080765e-08
-3.53608809198e-07
8.01234196341e-08
-2.72667322635e-07
2.05928436348e-07
-4.30074900249e-07
3.07379061231e-07
-4.12092952691e-07
3.08585059657e-07
-3.01493200168e-07
2.64982536479e-07
-1.47301880543e-07
3.69632172477e-07
-2.19447993692e-07
5.42244569206e-07
-3.31397009302e-07
6.59526469329e-07
-3.10632451671e-07
7.41124748762e-07
-2.7719695928e-07
8.12797443959e-07
-2.57946459011e-07
8.74204441201e-07
-2.34565685713e-07
9.18001464363e-07
-2.03344545561e-07
9.17687954453e-07
-1.51322271394e-07
8.83776150536e-07
-1.05774170396e-07
8.75423726634e-07
-9.99238344944e-08
9.25301072521e-07
-1.30842081348e-07
1.0310960229e-06
-1.98979379903e-07
1.16553198254e-06
-2.72013119669e-07
1.26617775392e-06
-3.06414241263e-07
1.32930159639e-06
-3.07378884818e-07
1.39702172968e-06
-3.00455510232e-07
1.46917724876e-06
-2.87844658734e-07
1.5353950105e-06
-2.73534419077e-07
1.59743070822e-06
-2.60284314873e-07
1.65630115655e-06
-2.47860923111e-07
1.71445310712e-06
-2.37610630736e-07
1.77009723291e-06
-2.25901006901e-07
1.82428899058e-06
-2.15390990247e-07
1.87313579529e-06
-2.03813530222e-07
1.92248826091e-06
-1.96723956543e-07
1.9627819886e-06
-1.82622908511e-07
1.99563071136e-06
-1.71341091595e-07
2.05462348425e-06
-1.91664398718e-07
2.11160605599e-06
-2.07942630436e-07
2.16697845922e-06
-2.26252131939e-07
2.25124694892e-06
-2.47354172756e-07
2.3311231021e-06
-2.46735640154e-07
2.38439644824e-06
-2.37266801778e-07
2.42864092233e-06
-2.16522870232e-07
2.4771112105e-06
-1.8246516703e-07
2.52538953195e-06
-1.51209137984e-07
2.56478288782e-06
-1.33892984048e-07
2.59577724403e-06
-1.2374832457e-07
2.6211944888e-06
-1.12677254295e-07
2.64183554717e-06
-9.84608390257e-08
2.65829580625e-06
-8.09565866313e-08
2.67041833798e-06
-6.07108730351e-08
2.67804967274e-06
-3.77955893354e-08
2.68176137583e-06
-1.23880758565e-08
2.68036465567e-06
1.34281724767e-08
2.66802805184e-06
3.80021248411e-08
2.64021553036e-06
6.59910915604e-08
2.61066692501e-06
1.03471892129e-07
2.58294495499e-06
1.38659349795e-07
2.54545232969e-06
1.64854267846e-07
2.49349029786e-06
1.91674325082e-07
2.42289076159e-06
2.25041072603e-07
2.32762719543e-06
2.71870239393e-07
2.20030614021e-06
3.45582599696e-07
2.03392225313e-06
4.61186460256e-07
1.8160133562e-06
6.35724093764e-07
1.6388563314e-06
8.74411437132e-07
1.45314099927e-06
9.70713378374e-07
1.25924077478e-06
7.61045145333e-07
1.11580998377e-06
4.94568800625e-07
1.01683187958e-06
3.74596507882e-07
9.3503574656e-07
3.43942066106e-07
8.57940849976e-07
3.63841900221e-07
7.76396813871e-07
4.08652643669e-07
6.88395661735e-07
4.28337086672e-07
5.99902926816e-07
4.02843714127e-07
5.08159192948e-07
3.71372779413e-07
4.16261932249e-07
3.56896543536e-07
3.30115772379e-07
3.48280990149e-07
2.40620505036e-07
3.36755227955e-07
1.60847221477e-07
2.95636340107e-07
1.08167364723e-07
2.52433654425e-07
5.53767192308e-08
3.13709806235e-07
3.36470488287e-07
8.87813937449e-09
-3.62729888811e-07
7.12520634494e-08
-3.35320889617e-07
1.72188571121e-07
-5.31403116086e-07
2.40033699494e-07
-4.80279023843e-07
2.18618730583e-07
-2.80293714045e-07
2.75001810037e-07
-2.03852420297e-07
4.16446045928e-07
-3.61142801205e-07
5.25937927304e-07
-4.411789643e-07
6.16861544815e-07
-4.01824457112e-07
7.03121461695e-07
-3.63687918293e-07
7.84386158982e-07
-3.39403241391e-07
8.25121867137e-07
-2.75450809039e-07
8.07325512778e-07
-1.85656807345e-07
7.89754214645e-07
-1.33832435405e-07
8.2504800658e-07
-1.41134542237e-07
9.08487257411e-07
-1.83418714811e-07
1.02578509543e-06
-2.48184812914e-07
1.13637815292e-06
-3.09605991783e-07
1.20388331815e-06
-3.39539569752e-07
1.25335172291e-06
-3.55893447368e-07
1.31818232348e-06
-3.7221108099e-07
1.38913220339e-06
-3.71398183659e-07
1.45729288e-06
-3.55991093047e-07
1.52086034431e-06
-3.37081593944e-07
1.58122787436e-06
-3.20626386114e-07
1.64111865113e-06
-3.07722155967e-07
1.69653637671e-06
-2.92996368063e-07
1.75290815365e-06
-2.82238991739e-07
1.8031473953e-06
-2.65594779266e-07
1.85269872862e-06
-2.53329775593e-07
1.89053312634e-06
-2.34524601252e-07
1.93780190953e-06
-2.29860279723e-07
2.00404916406e-06
-2.37557814617e-07
2.05409414793e-06
-2.41681310809e-07
2.12003054378e-06
-2.73854857431e-07
2.20424735973e-06
-3.104484165e-07
2.27417520518e-06
-3.17265678106e-07
2.33363071631e-06
-3.06179615845e-07
2.38412401301e-06
-2.87752973591e-07
2.43013567602e-06
-2.62531617564e-07
2.47765181856e-06
-2.29981733274e-07
2.52448634824e-06
-1.98047129256e-07
2.56469900167e-06
-1.74111084889e-07
2.59698138434e-06
-1.56037912281e-07
2.62290364467e-06
-1.38607183708e-07
2.64360827226e-06
-1.19173043321e-07
2.65965461274e-06
-9.70088201047e-08
2.67102540616e-06
-7.20858230713e-08
2.67748981161e-06
-4.42606599586e-08
2.67866640987e-06
-1.35627330524e-08
2.67282046648e-06
1.92814128585e-08
2.65668111327e-06
5.41544640601e-08
2.62976189911e-06
9.29333194187e-08
2.59761090788e-06
1.35656085367e-07
2.55963754857e-06
1.76676888187e-07
2.5082520988e-06
2.16294096975e-07
2.43673565486e-06
2.63254724918e-07
2.33690843846e-06
3.2493509657e-07
2.20114527525e-06
4.07702374001e-07
2.02853180493e-06
5.18255073722e-07
1.82999925352e-06
6.59770123913e-07
1.63974215781e-06
8.26016530302e-07
1.52695005872e-06
9.87255407707e-07
1.38925970528e-06
1.10846291583e-06
1.25215995346e-06
8.98200806738e-07
1.10627831913e-06
6.40503385047e-07
9.68632683024e-07
5.12297578723e-07
8.59629295541e-07
4.53005208254e-07
7.75956685629e-07
4.47583954276e-07
6.99217730156e-07
4.85474047468e-07
6.13164280375e-07
5.14476506294e-07
5.2345470525e-07
4.92640919401e-07
4.36345289865e-07
4.58563017197e-07
3.48998847828e-07
4.44332857019e-07
2.60830316079e-07
4.36545720347e-07
1.79015410129e-07
4.18662882977e-07
1.28522239216e-07
3.46202265162e-07
8.01815679189e-08
3.0082844163e-07
3.22397048163e-08
3.61790051585e-07
3.68726681941e-07
3.13409813226e-09
-3.6606751356e-07
8.98766452672e-08
-4.22304592644e-07
1.42161863895e-07
-5.8400828029e-07
1.71891784223e-07
-5.10279373293e-07
1.64010398237e-07
-2.72563854128e-07
3.02912218868e-07
-3.42956020975e-07
4.42866139156e-07
-5.01369035534e-07
5.07354585474e-07
-5.05932288408e-07
5.80445659767e-07
-4.75158317505e-07
6.5056528335e-07
-4.34022099603e-07
6.85478142942e-07
-3.74492759153e-07
6.51863285596e-07
-2.41947681285e-07
6.48965675024e-07
-1.82843566855e-07
7.0544733305e-07
-1.90387462898e-07
8.02576556833e-07
-2.38330569157e-07
9.35549302353e-07
-3.16451275451e-07
1.05672502332e-06
-3.69408786664e-07
1.12211274819e-06
-3.75026433529e-07
1.16835771783e-06
-3.85804825345e-07
1.23748626081e-06
-4.25032203005e-07
1.30924052321e-06
-4.43966088606e-07
1.3742548798e-06
-4.36405392145e-07
1.43834903663e-06
-4.20070886626e-07
1.50306911468e-06
-4.01781224104e-07
1.5643326813e-06
-3.81865100724e-07
1.61368754892e-06
-3.57048324979e-07
1.6711635923e-06
-3.50441068026e-07
1.72270560013e-06
-3.33746981115e-07
1.77439974507e-06
-3.17254827775e-07
1.80739888467e-06
-2.86295778231e-07
1.84887768107e-06
-2.75971679412e-07
1.90106695518e-06
-2.82018345106e-07
1.95498707279e-06
-2.91449400312e-07
2.04944255427e-06
-3.3611084229e-07
2.14565573314e-06
-3.70045231942e-07
2.21906180384e-06
-3.83835812415e-07
2.27919384909e-06
-3.77383777278e-07
2.33336671209e-06
-3.60343242079e-07
2.38350207303e-06
-3.37883886411e-07
2.43130027452e-06
-3.10329802922e-07
2.47885966082e-06
-2.77544993027e-07
2.52477210494e-06
-2.43966680586e-07
2.5652056507e-06
-2.14554466216e-07
2.59844352749e-06
-1.89287731904e-07
2.62504943215e-06
-1.65226118821e-07
2.64591740641e-06
-1.40053943673e-07
2.66152924861e-06
-1.12632625353e-07
2.67179407703e-06
-8.23598363694e-08
2.676253363e-06
-4.87272620711e-08
2.67412448768e-06
-1.14369292376e-08
2.66393203474e-06
2.94737463941e-08
2.6439963909e-06
7.4097914428e-08
2.61431681636e-06
1.22627535541e-07
2.5759756824e-06
1.74022967187e-07
2.52550330325e-06
2.27184046798e-07
2.45511822736e-06
2.86719032543e-07
2.35691205525e-06
3.61497908043e-07
2.22436358731e-06
4.57522284243e-07
2.05632003606e-06
5.75776272203e-07
1.86332848234e-06
7.11266589247e-07
1.66613407107e-06
8.56968459042e-07
1.49086446768e-06
1.00128959461e-06
1.38883100236e-06
1.08929071806e-06
1.27441931359e-06
1.22288915534e-06
1.1207271968e-06
1.05192205005e-06
1.00846108959e-06
7.52800672403e-07
8.8837290939e-07
6.3242234116e-07
7.79040493991e-07
5.62385725037e-07
6.93954527856e-07
5.32721696776e-07
6.15454152796e-07
5.64027856242e-07
5.31031840086e-07
5.98959577556e-07
4.54734204369e-07
5.68992233358e-07
3.71413968866e-07
5.4195105179e-07
2.83880987545e-07
5.3193452501e-07
2.01079633731e-07
5.19420428708e-07
1.43901235806e-07
4.75912102391e-07
9.71651591455e-08
3.93005239181e-07
5.42104090461e-08
3.43871253993e-07
2.40282929311e-08
3.91997550838e-07
3.92816982792e-07
3.26283331622e-08
-3.98854348917e-07
1.34184008865e-07
-5.24094283034e-07
1.77351293435e-07
-6.27450646564e-07
1.46151463441e-07
-4.79305010879e-07
1.96720274204e-07
-3.23303250536e-07
3.52825553328e-07
-4.99303365936e-07
4.29055212081e-07
-5.77858937982e-07
4.82913582579e-07
-5.60030926222e-07
5.31101783313e-07
-5.23567210747e-07
6.0043917957e-07
-5.03550600115e-07
5.86821991077e-07
-3.61015305025e-07
5.72294252754e-07
-2.27513557919e-07
6.25378345069e-07
-2.36009338273e-07
7.03543660066e-07
-2.68626967481e-07
8.28478370104e-07
-3.63338356653e-07
9.56067721803e-07
-4.44105167627e-07
1.02146841761e-06
-4.34855885801e-07
1.06511347435e-06
-4.18702507417e-07
1.14261526984e-06
-4.63326692594e-07
1.22238251804e-06
-5.04809148798e-07
1.28976058393e-06
-5.11344932461e-07
1.35446132044e-06
-5.01098043041e-07
1.41929869858e-06
-4.84893763204e-07
1.47727495673e-06
-4.59738584822e-07
1.52803091885e-06
-4.32595479825e-07
1.58036123312e-06
-4.09351403149e-07
1.62691215405e-06
-3.96960347667e-07
1.68059043907e-06
-3.87393374569e-07
1.72114623236e-06
-3.5777788231e-07
1.75569839858e-06
-3.20817672601e-07
1.81429557162e-06
-3.34538590956e-07
1.88028578019e-06
-3.47979614589e-07
1.9673781223e-06
-3.78514130324e-07
2.0602319785e-06
-4.28940289351e-07
2.1524938267e-06
-4.62286594037e-07
2.22141044877e-06
-4.52736608154e-07
2.27842198551e-06
-4.34384120104e-07
2.33183272582e-06
-4.13747568051e-07
2.38323337161e-06
-3.89282918971e-07
2.43270634717e-06
-3.59806010682e-07
2.48074721912e-06
-3.25593649804e-07
2.52632596617e-06
-2.8955730689e-07
2.56689273384e-06
-2.55136716486e-07
2.60082878479e-06
-2.23241867549e-07
2.62807765246e-06
-1.9249444662e-07
2.64911055574e-06
-1.61106510954e-07
2.66413254409e-06
-1.27672319848e-07
2.67285571789e-06
-9.11006498206e-08
2.67466124885e-06
-5.05475124182e-08
2.66870384325e-06
-5.49551775183e-09
2.65388227561e-06
4.42850286156e-08
2.62912861587e-06
9.88425825e-08
2.59372840441e-06
1.58030434104e-07
2.54582991179e-06
2.21930771183e-07
2.47983469758e-06
2.93189566911e-07
2.3875560409e-06
3.79003641404e-07
2.26250976116e-06
4.86550239661e-07
2.10438119953e-06
6.15645284261e-07
1.92369983601e-06
7.56444255987e-07
1.73993346484e-06
8.95006232246e-07
1.57860426951e-06
1.01825610186e-06
1.46269335096e-06
1.11714982302e-06
1.34173418478e-06
1.2102030748e-06
1.23391104088e-06
1.33067650236e-06
1.02194956012e-06
1.26385744019e-06
8.97404324174e-07
8.77350129336e-07
8.09425340199e-07
7.20430731674e-07
7.14793269371e-07
6.57051194597e-07
6.22372837748e-07
6.25178321691e-07
5.37015698522e-07
6.49422697481e-07
4.6876963299e-07
6.67235942312e-07
3.98429765428e-07
6.3938095159e-07
3.10979529961e-07
6.29445684699e-07
2.24226569582e-07
6.18746352369e-07
1.52510286448e-07
5.91197853588e-07
1.1262650645e-07
5.1585650283e-07
6.40274315671e-08
4.41663820738e-07
2.40525681694e-08
3.83885081537e-07
1.27309100445e-08
4.03434039574e-07
4.05551591576e-07
6.06850783399e-08
-4.59743964748e-07
1.48384820334e-07
-6.12029822401e-07
1.64901753882e-07
-6.44195982541e-07
1.07064058486e-07
-4.21618153283e-07
2.20337398255e-07
-4.36760923649e-07
3.46459221311e-07
-6.25676816864e-07
4.01111309099e-07
-6.32746692637e-07
4.58111736278e-07
-6.1725135761e-07
4.68495572064e-07
-5.34142341519e-07
4.94067616771e-07
-5.29290584704e-07
4.71346821162e-07
-3.38397232252e-07
5.39297522411e-07
-2.95553585702e-07
6.06845246993e-07
-3.03638842764e-07
7.14352762068e-07
-3.76214580393e-07
8.42550611895e-07
-4.91615218893e-07
9.15488040723e-07
-5.17107574257e-07
9.54938965756e-07
-4.74351221292e-07
1.03396187864e-06
-4.97756655042e-07
1.12398510425e-06
-5.53370154182e-07
1.19596641277e-06
-5.76800102237e-07
1.26008048183e-06
-5.75458463224e-07
1.3234332085e-06
-5.64443022457e-07
1.39138240381e-06
-5.52830508778e-07
1.45643817094e-06
-5.24772444558e-07
1.50028197114e-06
-4.76417794163e-07
1.55812186911e-06
-4.67163818122e-07
1.6029638753e-06
-4.41773083599e-07
1.63427786033e-06
-4.18676135398e-07
1.67258050664e-06
-3.96051125018e-07
1.76074878071e-06
-4.08957633438e-07
1.82640882875e-06
-4.00170492885e-07
1.87920100701e-06
-4.00744241203e-07
1.97399655493e-06
-4.73283645218e-07
2.07964439158e-06
-5.34565763429e-07
2.15290107173e-06
-5.355257719e-07
2.21606067596e-06
-5.1588326853e-07
2.27450528682e-06
-4.92820281781e-07
2.32989900648e-06
-4.69137426788e-07
2.38319151635e-06
-4.4257659303e-07
2.43440413144e-06
-4.11024888504e-07
2.48333519317e-06
-3.74536070194e-07
2.52911169845e-06
-3.35350027919e-07
2.57002955617e-06
-2.96075255836e-07
2.60466431127e-06
-2.57900918096e-07
2.63254687124e-06
-2.20403910337e-07
2.65368961748e-06
-1.82276512962e-07
2.66791955451e-06
-1.41931727732e-07
2.67470145588e-06
-9.79089923187e-08
2.67331184351e-06
-4.91904642564e-08
2.66298339746e-06
4.80556262364e-09
2.6428504747e-06
6.43837929631e-08
2.61190674947e-06
1.29762638936e-07
2.56846881876e-06
2.01443066384e-07
2.50877445711e-06
2.81597604051e-07
2.42610586874e-06
3.75834891968e-07
2.31315832576e-06
4.91917887071e-07
2.16758066137e-06
6.32084519075e-07
1.99612390596e-06
7.87053515705e-07
1.81490320801e-06
9.37620580227e-07
1.64490382521e-06
1.0649418984e-06
1.50559180519e-06
1.15749559025e-06
1.39840405146e-06
1.22424886079e-06
1.31271075034e-06
1.29580672227e-06
1.27143050101e-06
1.37187271369e-06
1.09699966883e-06
1.43824283223e-06
8.30789513271e-07
1.14355021309e-06
7.04614371507e-07
8.46610048854e-07
6.14477624844e-07
7.4720267892e-07
5.32119323343e-07
7.07546582634e-07
4.70798525454e-07
7.10745509417e-07
4.20696101239e-07
7.17358718223e-07
3.4480135463e-07
7.15289285851e-07
2.53692575835e-07
7.20591362299e-07
1.68787352333e-07
7.03687953919e-07
1.08790968286e-07
6.51233296519e-07
6.42194682466e-08
5.60479859401e-07
2.13509642335e-08
4.84590014351e-07
-1.43948780001e-08
4.19708127231e-07
-1.17357892204e-08
4.00778203916e-07
3.93863634054e-07
7.85298507895e-08
-5.38451497895e-07
1.4155669115e-07
-6.75288367716e-07
1.27455817825e-07
-6.30292482333e-07
1.34953761413e-07
-4.29268287993e-07
2.6301562814e-07
-5.65024086974e-07
3.16455232069e-07
-6.79344341273e-07
3.66564077852e-07
-6.8306875351e-07
4.19723069268e-07
-6.70600424317e-07
4.33314558538e-07
-5.47897571419e-07
4.52023343368e-07
-5.48150861166e-07
4.67795624156e-07
-3.54267199178e-07
5.27858593673e-07
-3.55705650747e-07
6.05081946161e-07
-3.80946126438e-07
7.26205409979e-07
-4.97425398055e-07
8.33954767841e-07
-5.99447854444e-07
8.77132032696e-07
-5.60346660687e-07
9.27268371651e-07
-5.24531516527e-07
1.01068699648e-06
-5.81207131586e-07
1.09297364364e-06
-6.35676733052e-07
1.16404680985e-06
-6.47882146048e-07
1.22874827506e-06
-6.40160380925e-07
1.28624834849e-06
-6.21938938133e-07
1.34100003963e-06
-6.07566558061e-07
1.39727720045e-06
-5.81034086798e-07
1.44530796183e-06
-5.24426424268e-07
1.49384952646e-06
-5.15678785248e-07
1.55306317707e-06
-5.00961690215e-07
1.6176438352e-06
-4.83226069595e-07
1.68225953694e-06
-4.6063931042e-07
1.73876587887e-06
-4.6543791018e-07
1.80767393075e-06
-4.69053005838e-07
1.91759295577e-06
-5.10636421689e-07
2.00870008568e-06
-5.64366780787e-07
2.07984008173e-06
-6.05686536228e-07
2.145934574e-06
-6.01605855627e-07
2.20922092544e-06
-5.79159739847e-07
2.26989572618e-06
-5.53489375024e-07
2.32772226066e-06
-5.26962845174e-07
2.38310626997e-06
-4.97964381561e-07
2.43620609759e-06
-4.64134235018e-07
2.48656600775e-06
-4.24911512141e-07
2.53321640321e-06
-3.82022456055e-07
2.57488605742e-06
-3.37773009182e-07
2.61041938102e-06
-2.93467678546e-07
2.63906342093e-06
-2.49084539324e-07
2.66031787684e-06
-2.03571811791e-07
2.67360935643e-06
-1.5526135539e-07
2.67815231974e-06
-1.02502178567e-07
2.67314037354e-06
-4.42223599882e-08
2.65784560945e-06
2.00380131666e-08
2.63155978479e-06
9.06172260089e-08
2.59315989627e-06
1.68094020654e-07
2.54033231275e-06
2.54201712484e-07
2.46850128242e-06
3.53369138551e-07
2.37107526288e-06
4.73179234375e-07
2.24245605524e-06
6.20458081832e-07
2.08422883205e-06
7.90232820632e-07
1.9055780613e-06
9.65649680182e-07
1.72268630892e-06
1.12043821698e-06
1.55654852327e-06
1.23100250866e-06
1.42123565126e-06
1.29270094162e-06
1.31862090125e-06
1.32675335693e-06
1.24825358976e-06
1.36606580032e-06
1.21003376364e-06
1.41000299378e-06
1.17790681224e-06
1.47030153212e-06
9.07893952823e-07
1.41352097531e-06
6.10564289825e-07
1.14391661761e-06
5.20713740161e-07
8.37032986223e-07
4.65555111533e-07
7.62678993428e-07
4.27245317129e-07
7.49036060865e-07
3.79560492334e-07
7.65020648723e-07
2.97034421168e-07
7.97819042573e-07
2.0095546557e-07
8.16674453616e-07
1.13547991723e-07
7.91105982425e-07
4.9237617185e-08
7.15578700987e-07
-6.94869657735e-09
6.16702955808e-07
-4.28953199761e-08
5.20579300433e-07
-6.20312077198e-08
4.38866537267e-07
-4.1983254081e-08
3.80813362012e-07
3.51868847972e-07
8.95812440362e-08
-6.28260956853e-07
1.45291618393e-07
-7.31228059307e-07
1.11352481372e-07
-5.96534241507e-07
1.60286024527e-07
-4.78363790412e-07
2.67868854149e-07
-6.72818995557e-07
2.85094508656e-07
-6.96770632073e-07
3.2647195495e-07
-7.24645788793e-07
3.47399937257e-07
-6.91696234377e-07
3.90077322744e-07
-5.90711117309e-07
3.80907850583e-07
-5.39102476507e-07
4.37802488573e-07
-4.11256692396e-07
5.10614663746e-07
-4.28604859733e-07
5.94809635257e-07
-4.65227627881e-07
7.04635433735e-07
-6.07344260426e-07
7.73174670837e-07
-6.68067640295e-07
8.0235949287e-07
-5.89590712734e-07
8.80945470259e-07
-6.03162600477e-07
9.71779434385e-07
-6.72074046197e-07
1.05075380847e-06
-7.14672242631e-07
1.12483788767e-06
-7.21976624596e-07
1.19534174002e-06
-7.10667769953e-07
1.2600421548e-06
-6.86629496548e-07
1.30616181728e-06
-6.53678402356e-07
1.35021343409e-06
-6.25070706119e-07
1.41596008158e-06
-5.90150686126e-07
1.46027021812e-06
-5.59969980506e-07
1.4958769572e-06
-5.36539865734e-07
1.53604078344e-06
-5.23364251008e-07
1.61722408315e-06
-5.41796435891e-07
1.70939593357e-06
-5.57584006653e-07
1.80448761934e-06
-5.64120361831e-07
1.8950660821e-06
-6.01190978147e-07
1.99879353408e-06
-6.68073275928e-07
2.07359105879e-06
-6.80468321634e-07
2.13817999402e-06
-6.66184092497e-07
2.20220972833e-06
-6.43182796662e-07
2.26514385122e-06
-6.16420717198e-07
2.32553429174e-06
-5.87354571449e-07
2.38316979236e-06
-5.55606420433e-07
2.43828228807e-06
-5.19259113934e-07
2.49045769793e-06
-4.77106440248e-07
2.53864261396e-06
-4.30234421173e-07
2.58165977218e-06
-3.80824729437e-07
2.6184824193e-06
-3.30332080878e-07
2.64820041172e-06
-2.78850881395e-07
2.66983969661e-06
-2.25261946222e-07
2.68228598345e-06
-1.67774855295e-07
2.68448067049e-06
-1.0475358443e-07
2.67552451063e-06
-3.53549302424e-08
2.65475489531e-06
4.07375587629e-08
2.62150949865e-06
1.23764656188e-07
2.57477033171e-06
2.14748723554e-07
2.51228966041e-06
3.16586580932e-07
2.42998044908e-06
4.35559649133e-07
2.32270526864e-06
5.80355285723e-07
2.18567995434e-06
7.57380678539e-07
2.02188630425e-06
9.53926281943e-07
1.83299376637e-06
1.15443773243e-06
1.63408332324e-06
1.31928550545e-06
1.45953491169e-06
1.40547632632e-06
1.32371533474e-06
1.42841598022e-06
1.21929868026e-06
1.4310606816e-06
1.14142764659e-06
1.44381535711e-06
1.10124836808e-06
1.45007969703e-06
1.11996567611e-06
1.45149095199e-06
1.06158338357e-06
1.47182530423e-06
7.40785842164e-07
1.4646459332e-06
4.39098711959e-07
1.13865680881e-06
4.00597251302e-07
8.01118087023e-07
3.92250051117e-07
7.57324691211e-07
3.47832103798e-07
8.09401247854e-07
2.59949617673e-07
8.85665346138e-07
1.54823760191e-07
9.21776640873e-07
5.40976435407e-08
8.91836794065e-07
-3.30005835871e-08
8.02678329473e-07
-1.00458513429e-07
6.84194827883e-07
-1.24135856733e-07
5.442979528e-07
-1.14832755724e-07
4.29610149575e-07
-6.82421293961e-08
3.34199824626e-07
2.8367373146e-07
8.12955099751e-08
-7.09728250766e-07
1.25969717064e-07
-7.76082878536e-07
1.10826641235e-07
-5.81532771317e-07
1.9130600608e-07