/*--------------------------------*- C++ -*----------------------------------*\
| =========                 |                                                 |
| \\      /  F ield         | OpenFOAM: The Open Source CFD Toolbox           |
|  \\    /   O peration     | Version:  v1806                                 |
|   \\  /    A nd           | Web:      www.OpenFOAM.com                      |
|    \\/     M anipulation  |                                                 |
\*---------------------------------------------------------------------------*/
FoamFile
{
    version     2.0;
    format      ascii;
    class       volScalarField;
    location    "777";
    object      p;
}
// * * * * * * * * * * * * * * * * * * * * * * * * * * * * * * * * * * * * * //

dimensions      [0 2 -2 0 0 0 0];


internalField   nonuniform List<scalar> 
6400
(
0.144394855856
0.144398147439
0.144407581463
0.144426120901
0.14445387316
0.144490851327
0.144537020644
0.144593483865
0.144661408852
0.144742695763
0.144843697988
0.144967819936
0.145112509443
0.145277675431
0.145465269272
0.14567796217
0.145917629973
0.146184376505
0.146476027436
0.146787113308
0.14711218986
0.14745303995
0.147817485161
0.148213603105
0.148646332632
0.149115567472
0.149617852862
0.150150498734
0.150712970504
0.151305779899
0.151929219798
0.152581214196
0.153255703648
0.153946491551
0.15465061504
0.155365431352
0.156091358635
0.156833880974
0.157591453905
0.158355335868
0.159126121463
0.159915231437
0.16072826056
0.161557052707
0.162390232374
0.163219569713
0.164038745212
0.164842726205
0.165626879947
0.166387086907
0.167119793463
0.167819226795
0.168476052154
0.169079234684
0.169626049096
0.170119837341
0.170556070454
0.17092541864
0.171225607832
0.171463680481
0.171646439709
0.171778407412
0.171864745028
0.171922036674
0.171969725898
0.172019782588
0.172067542203
0.172101082038
0.172116664473
0.172118177935
0.172109618696
0.172093298189
0.17207058132
0.172044648505
0.172016669389
0.17198899359
0.171963516258
0.171945671263
0.171933611352
0.171928409855
0.144390095181
0.144393607509
0.144402223836
0.14442032507
0.144449567664
0.14448799176
0.144534630407
0.144589340355
0.144655219858
0.144736254256
0.144836897891
0.144960009431
0.14510498686
0.14527108081
0.145458818301
0.145670139073
0.145909010559
0.146176396303
0.146469305748
0.146780861461
0.147104016753
0.147442809035
0.1478066977
0.148202887119
0.148636105796
0.149106085715
0.149608733364
0.15014200099
0.150705420667
0.151298981698
0.151922580636
0.152575045661
0.153250501998
0.153941437298
0.154645680864
0.155360798197
0.15608674297
0.156829841868
0.157588653125
0.158353582502
0.159124173785
0.159914068197
0.160730214197
0.161561405709
0.162395908474
0.163226703379
0.164047452657
0.164853319752
0.165639299496
0.166400159482
0.167132307495
0.167832881675
0.168493968435
0.169099333358
0.169647828022
0.170144135466
0.170579099082
0.170945789964
0.171245406681
0.171482465448
0.171662544678
0.171793501435
0.171880208984
0.171938772711
0.171988159606
0.172038939593
0.172086467425
0.172117317392
0.172129701565
0.172128503022
0.17211754697
0.172098911932
0.172073542171
0.172044408925
0.172014427838
0.171985608009
0.171960539453
0.171942065378
0.171929722816
0.171925467773
0.144376626725
0.144382393013
0.144390292654
0.144406985121
0.144435262441
0.144477812613
0.144527990657
0.144581145452
0.144643997757
0.144723328632
0.14482312058
0.144945685866
0.145090961266
0.145257874893
0.145445654022
0.145653621364
0.145890073941
0.146161882823
0.14645770008
0.146767806412
0.147086865179
0.147420700903
0.14778371112
0.148182166977
0.148616371712
0.149086352076
0.149590221421
0.15012529319
0.15069031003
0.151285192603
0.151909670872
0.152563254306
0.153240741572
0.153931529533
0.154634761817
0.155351472046
0.156077925769
0.15682069679
0.157580987638
0.158349292817
0.159125876856
0.15992044399
0.160737234334
0.1615688762
0.162405183675
0.16323842479
0.164062362868
0.164871683536
0.165661295679
0.166426385101
0.167162824564
0.167865578533
0.16852593493
0.169134778086
0.169690178088
0.170188453043
0.170621701159
0.170986674982
0.171284687482
0.171519749162
0.171698019444
0.171826199538
0.171912625981
0.171975384054
0.172031031676
0.172083493322
0.172125916255
0.172150353271
0.172157087362
0.172150560254
0.172134398462
0.172110109007
0.172079488418
0.172045865781
0.172012090256
0.171980722328
0.171954521614
0.171934964009
0.17192242435
0.171917705013
0.14435714417
0.144363107537
0.144370011757
0.144385462219
0.14441046919
0.1444529681
0.144515600943
0.144569009047
0.144627350024
0.144703715287
0.144802076823
0.144924337614
0.145070295813
0.145237291405
0.145424937494
0.145636837878
0.145877129679
0.146146104576
0.146433628967
0.146732915753
0.147048146089
0.147385544752
0.14775107958
0.148150332335
0.148585721866
0.149057196383
0.149562952765
0.150100244843
0.150667561366
0.151264316361
0.151890829815
0.152546033497
0.153225179829
0.153918812789
0.154620042192
0.155334464762
0.156064321792
0.156808257016
0.157567955633
0.158340715467
0.159125427724
0.15992665343
0.160746786413
0.161580761264
0.162420158239
0.163257332073
0.164085850852
0.164900130482
0.165694992729
0.166465540021
0.167206995092
0.167913597939
0.168577756821
0.169192273713
0.169752450072
0.170252350472
0.170685457788
0.171049240356
0.171345236331
0.171577696746
0.171753085752
0.171879777567
0.171970352131
0.172041725741
0.172102441713
0.172151525851
0.172187603755
0.172203921949
0.172201329802
0.17218562208
0.172160882078
0.172128438038
0.172090180803
0.172048527823
0.172007202667
0.171971780502
0.171943991771
0.171921183575
0.171905265784
0.171898683642
0.144326488472
0.144328031022
0.144336504786
0.144352468425
0.144380269913
0.144420603267
0.144478481936
0.144536554543
0.14459842812
0.144675356067
0.144772603648
0.144894788813
0.145042028261
0.145214430781
0.145409387073
0.145621874906
0.145855127175
0.146111079331
0.146387914505
0.146684413043
0.147000974251
0.147339962306
0.147707225548
0.1481082318
0.148545285581
0.149018660085
0.149526506947
0.150066591439
0.150636883889
0.151236676451
0.151865350373
0.152523983028
0.15320698977
0.153898941264
0.154599369105
0.155313005413
0.156041789827
0.156788479382
0.157552537795
0.158331489071
0.159124347648
0.159933097401
0.160758556984
0.161596817869
0.162440881291
0.163283470859
0.164118041756
0.164938803557
0.165740458574
0.166517947272
0.16726606622
0.167978792246
0.16864911599
0.169270148304
0.169835493154
0.170338081265
0.170771968684
0.171135194975
0.171429670124
0.171660284897
0.171834745252
0.171963739171
0.172061417812
0.172139881028
0.172199829038
0.172245674302
0.172275404718
0.172281451946
0.17226555418
0.172235760823
0.172197921128
0.172153511764
0.172102880792
0.172048277664
0.17199746473
0.171955890021
0.171921831174
0.171890911614
0.171871281214
0.171864153439
0.144271138575
0.144271600732
0.144285180453
0.14430200229
0.144332971943
0.14437585161
0.144430411823
0.144489413403
0.14455641155
0.144635833954
0.144731797515
0.144854647877
0.145010848757
0.145192107728
0.145386391005
0.145592643351
0.14581594565
0.14606276877
0.146334633213
0.14662894202
0.146943842932
0.147283217952
0.147652433811
0.148055796639
0.148495132604
0.148970303406
0.149480957411
0.150024070839
0.150598425322
0.151202046338
0.15183508379
0.152495891229
0.153179005404
0.153874475341
0.154572414011
0.155282806536
0.156013331942
0.156764671157
0.157534736069
0.158321082608
0.159122591979
0.159939790131
0.160772378919
0.161616934272
0.162467434393
0.163317044747
0.164159223005
0.16498804384
0.165798097705
0.166584176727
0.167340830282
0.168061914591
0.168740526643
0.169369386848
0.169940915726
0.170447539662
0.170883818131
0.171248343642
0.171543597748
0.171775450104
0.171952948439
0.172088031361
0.172194024667
0.172274084887
0.172331947946
0.172372742593
0.172394385114
0.172387443142
0.172353667595
0.172303995676
0.172247754599
0.172185618519
0.172115946328
0.172044273812
0.171980448514
0.171927995516
0.171882130216
0.171842712051
0.171819786933
0.171810183705
0.144187020328
0.144193726735
0.144215511341
0.144240066422
0.144267541265
0.144311327783
0.144367985918
0.144429695879
0.144500655534
0.14458325066
0.144683636109
0.144810697204
0.144974928801
0.145155554253
0.145345269575
0.145543516733
0.145760487853
0.146004730673
0.146274406989
0.146563793403
0.146876044714
0.147216176007
0.147587152666
0.147992446028
0.148434433866
0.148913595097
0.149425778297
0.149972485296
0.150551723715
0.15116238553
0.151799630374
0.152460939453
0.153144964799
0.153836826032
0.154534572936
0.15524615652
0.155980360561
0.156737455054
0.157514628477
0.158309295801
0.159120153135
0.159946830933
0.160788230436
0.1616410518
0.162499871642
0.163358244384
0.164209708074
0.165048284378
0.165868494203
0.166665028717
0.16743228438
0.168163972616
0.168852967752
0.16949139469
0.170070939694
0.170583985537
0.171025697579
0.171395301014
0.171695829284
0.171933692869
0.172118480957
0.172261704274
0.172372366717
0.172452125273
0.172512936376
0.172547888683
0.172553092582
0.172525142962
0.172467505373
0.172392721018
0.172311729188
0.17222452896
0.172129105694
0.172035047059
0.171951813608
0.171881326252
0.171819804291
0.171773623517
0.171748604358
0.171737056524
0.144087203039
0.144099911047
0.144124737617
0.144159394688
0.144189874342
0.144235897314
0.144291347414
0.144356440082
0.144432441435
0.144513490697
0.144622863004
0.14476318965
0.144926017061
0.145103305849
0.145286364096
0.145477601967
0.145693659849
0.145938332811
0.146203240717
0.146487752808
0.146797951109
0.147138350382
0.147510891196
0.147919166132
0.148364740185
0.148847183068
0.149363574354
0.149910819028
0.150497375754
0.151117522374
0.151756971572
0.152416086792
0.153098563087
0.153788907129
0.154486478302
0.155203098915
0.155943283121
0.156707037695
0.157492084101
0.158295926632
0.159116997635
0.159954301046
0.160806152953
0.161669183098
0.162538281606
0.163407295773
0.164269888146
0.165120100941
0.16595243429
0.166761517051
0.167541629838
0.168286293714
0.16898803437
0.169638470785
0.170229021776
0.170752468029
0.171204714404
0.171585315742
0.171896825571
0.172144934207
0.172338790078
0.172488187674
0.172600783401
0.172683090882
0.172742316995
0.172776344379
0.17275983893
0.172701334985
0.172612200287
0.172505271567
0.172391946236
0.172271412467
0.172143174111
0.172017450495
0.171904302278
0.171807995
0.171732227091
0.171681948588
0.171657768318
0.171647738827
0.143976744701
0.143992963499
0.144018325552
0.144048887308
0.144087078339
0.144142058122
0.144198471918
0.144265832313
0.14435051399
0.144437651312
0.144545573316
0.144695200677
0.14486120993
0.145033145241
0.14521044385
0.145401562596
0.145617206961
0.145859006043
0.14611947595
0.146401259818
0.146710042525
0.147049896265
0.147422499891
0.147832828612
0.148285984225
0.148770648559
0.149291713624
0.149846849993
0.150435504834
0.151057521743
0.151702943604
0.15236770474
0.153041070743
0.15372784323
0.154430596926
0.155154290986
0.155901761315
0.156673169324
0.157466906651
0.158280791368
0.159113070895
0.159962258004
0.160826206507
0.161701385562
0.162582800086
0.163464489591
0.164340262966
0.165204238616
0.166050927921
0.166874917836
0.167670395464
0.16843070563
0.169148100972
0.169814010344
0.170420119786
0.170959994169
0.171430072202
0.171828965284
0.172156578202
0.172417293991
0.172621439126
0.172777618614
0.172893021657
0.172972580969
0.17301986514
0.173045761969
0.173023764713
0.172926477207
0.172795658923
0.17264738196
0.172491873364
0.172329945659
0.172159790047
0.171986948918
0.171827224872
0.171698933641
0.17161346581
0.171565579844
0.17154598071
0.171540618024
0.143853780084
0.143872178029
0.143901688298
0.143931428614
0.143972791926
0.144028504097
0.144087740911
0.144155778026
0.144241453214
0.144346187896
0.144459896262
0.144610288337
0.144777623787
0.144946285367
0.145118237166
0.145312380493
0.145531411365
0.145768410582
0.146023555309
0.146303034108
0.146611591011
0.146952094048
0.147325216733
0.147734608354
0.148194328904
0.148687756656
0.14920656646
0.149768696746
0.150362963942
0.150989661276
0.151638697909
0.152302142417
0.152975150353
0.153660264623
0.154367798637
0.15509946029
0.155855391078
0.156635535042
0.157438879072
0.158263707627
0.159108267673
0.159970702155
0.16084844479
0.161737744275
0.162633608781
0.163530197678
0.164421465341
0.165301636744
0.166165247144
0.167006844616
0.167820560865
0.168599678878
0.169336453809
0.170022631374
0.170650742322
0.171215290568
0.171712270413
0.172136813963
0.172483893642
0.172759783431
0.172981294201
0.173150366195
0.173268599885
0.173336263662
0.173358520839
0.173347705267
0.173308647976
0.173211150101
0.173026770931
0.172821466196
0.172614569545
0.172407560187
0.172183960958
0.171937016726
0.171702120712
0.171535755381
0.171449534289
0.171415352814
0.17140583294
0.171407846252
0.143712938027
0.143730470205
0.143762703598
0.143797860917
0.143848122704
0.143898967199
0.143959449168
0.144030517179
0.144109166155
0.144223819399
0.144352584649
0.14450427375
0.144672405521
0.144842242608
0.145013889805
0.145209193585
0.14543000251
0.145664202717
0.145915473607
0.146191819316
0.146499527116
0.146842208668
0.14722070104
0.147630410137
0.148086026609
0.148592294775
0.149119913785
0.149682357686
0.150278836913
0.150901614825
0.151557789707
0.152224837788
0.152896934946
0.15358489661
0.154298677549
0.155038668383
0.155803846152
0.156593793664
0.157407773867
0.158244510471
0.159102461852
0.159979575127
0.160872884515
0.161778353207
0.162690926082
0.163604860142
0.164514262086
0.165413456349
0.166296975568
0.16715932519
0.167994656516
0.168796421678
0.169557349777
0.170270179722
0.170928785205
0.171528147362
0.172061693349
0.172518893578
0.172889249538
0.173187608516
0.173447872845
0.173642702201
0.173763168937
0.173806226785
0.173781864269
0.173706931951
0.17360491427
0.173496569633
0.173305510644
0.173034535034
0.172766337652
0.172520157202
0.17223317468
0.171862225175
0.171492844248
0.171278562633
0.171214388029
0.171217787782
0.171230125047
0.171247857547
0.143550031459
0.143564067612
0.143590243271
0.143634776831
0.143696197922
0.143748212117
0.143810600475
0.143888813641
0.143966568729
0.144078502547
0.144219029164
0.144375014554
0.144543452853
0.14471622207
0.144895564219
0.145094153317
0.145314127789
0.145545760837
0.145794909541
0.14606840026
0.146372559037
0.146713544443
0.147101775947
0.147523526163
0.147974568443
0.148481297536
0.149018001785
0.149579350001
0.150185392397
0.150814083503
0.15146377202
0.152128204369
0.152803657834
0.153500427777
0.154222656043
0.154971588958
0.155746738975
0.156547535848
0.157373308674
0.158223039056
0.159095516174
0.159988768277
0.160899500147
0.161823291193
0.162754982996
0.163688969407
0.164619538366
0.165541074971
0.166448034375
0.167334854141
0.168195816947
0.169024903883
0.169816004228
0.170563618996
0.171262971949
0.171907691772
0.172487073081
0.172989130494
0.173390514042
0.173720235677
0.174073586514
0.174321302039
0.174446319121
0.17444863161
0.17435163915
0.174181834833
0.173971689487
0.173786154737
0.173578505853
0.173266884034
0.172952030225
0.172707846719
0.172369252883
0.171764532014
0.171102964168
0.17083852786
0.170870109808
0.17097221004
0.171024387172
0.171080128286
0.143364616138
0.143375711825
0.14339285167
0.143442571378
0.143505606203
0.143566288438
0.14363347728
0.143719762879
0.143806008277
0.143917680662
0.144063721798
0.144223004126
0.144391554719
0.144563539559
0.144753143676
0.144962516627
0.145182547874
0.145412306145
0.145660724634
0.145933077742
0.146233648915
0.146568433288
0.14695795463
0.147400966389
0.147859409063
0.148355875712
0.148904216066
0.149472533722
0.150071620122
0.1507048202
0.151357460717
0.152021442263
0.152700683541
0.153406123922
0.154138319028
0.154897470706
0.15568353013
0.156496159913
0.157334971564
0.158199067913
0.159087368835
0.159998190416
0.160928196147
0.161872577101
0.162825986091
0.163783024389
0.164738250131
0.165686054688
0.166620664663
0.167536372671
0.168427742253
0.169289801995
0.170118476238
0.170910602368
0.171661293635
0.172359370373
0.172997183671
0.173587134862
0.174033601167
0.17439920783
0.175061942329
0.175378994843
0.175465915359
0.175365972954
0.175125456211
0.174791316084
0.174401052842
0.174052431673
0.173767731106
0.173431413101
0.173083855671
0.173019486429
0.172717398465
0.171694738738
0.17040994243
0.170090798877
0.170399941434
0.170727932634
0.170797777193
0.170943325426
0.143157794818
0.143170578442
0.143193088071
0.143231902092
0.143289563694
0.14335615322
0.143429489307
0.143520529738
0.143620254931
0.143735640134
0.143886320587
0.1440487812
0.144219049676
0.144391166759
0.144584458593
0.144804091891
0.145029040564
0.145261112491
0.145510795704
0.145783775523
0.14608312746
0.146412616728
0.146797756372
0.147253412113
0.147728699557
0.148223663621
0.148775776957
0.149353574306
0.149949759201
0.150580649011
0.15122997326
0.15189576757
0.152585740687
0.153301889648
0.154044902526
0.154815367129
0.155613610771
0.156439254122
0.157292151832
0.158171983105
0.159077758925
0.16000781154
0.160958935754
0.161926173104
0.162904040561
0.163887440531
0.164871336244
0.16585004904
0.166817318133
0.167767141293
0.168694537674
0.169596307717
0.170471380144
0.171318837108
0.172128844242
0.172884389291
0.173629224567
0.174437100773
0.174795148091
0.174716073122
0.174909579569
0.175140549049
0.17522342406
0.175137128487
0.174925576249
0.174631203276
0.174293247508
0.17395935146
0.173659495101
0.173403912585
0.173327244859
0.173749268653
0.173935272006
0.172043856734
0.168173140002
0.168284915757
0.169694005943
0.170599039661
0.170540435474
0.170924606667
0.142924662919
0.142939211002
0.142972377936
0.143001363062
0.1430525902
0.143121168471
0.143199619121
0.143296941031
0.143412757251
0.143531580193
0.143685903815
0.143852047238
0.144025785151
0.14420159123
0.144397992634
0.144623062238
0.144853467769
0.145090534754
0.145343576222
0.145618450348
0.14591870645
0.146246892218
0.146623781091
0.147078229117
0.147579074728
0.148083606605
0.148625199308
0.149218363313
0.149824900699
0.15044242476
0.151086798913
0.151758452938
0.152458345478
0.153186075488
0.153941306838
0.154724413767
0.155535916819
0.156375989633
0.157244469878
0.158141298344
0.159066119389
0.160017343293
0.160991668656
0.161984062074
0.162989142293
0.164002416545
0.165019511323
0.166034615687
0.1670405036
0.168030452619
0.169000310152
0.16994973902
0.170881306736
0.17179409257
0.172663826442
0.173465742705
0.174121218876
0.174327188938
0.174551246368
0.174730788684
0.174848756988
0.17500614326
0.175069887759
0.174985295817
0.174775754254
0.174477269333
0.174125083288
0.173757479632
0.173408252517
0.173083529922
0.172804031356
0.172552036592
0.171682942049
0.169868580403
0.168826004201
0.169474064203
0.170984354524
0.171966443005
0.169691737181
0.17114266292
0.142660554502
0.14267476797
0.142707446339
0.142739022582
0.142788298296
0.142859072876
0.142940737349
0.143039648023
0.143171002297
0.143302323599
0.143460247812
0.143631119213
0.143810303611
0.143992871429
0.144194338072
0.144422832641
0.14465779222
0.144900753169
0.145158478664
0.145436345686
0.145738322357
0.146067660518
0.146439267252
0.146886937783
0.147405002742
0.147929392889
0.148465057486
0.14905255904
0.149670167
0.150294205904
0.150935699311
0.151610342911
0.152318958995
0.153058523309
0.153826856695
0.154623633843
0.155449663977
0.156305385477
0.157191000722
0.158106506028
0.159051962362
0.160026298496
0.161026166663
0.162046188158
0.163081106488
0.164127721331
0.165183137901
0.166241182085
0.167292373408
0.168328935942
0.169348622877
0.170355078888
0.171354731648
0.17235154102
0.173253001988
0.173651183432
0.173917176801
0.174178096228
0.174397320675
0.174562861912
0.174658139449
0.174731410526
0.174725194537
0.174596333703
0.174352414094
0.174020146662
0.17362854057
0.173206142188
0.17277509723
0.172343512723
0.171879186993
0.171326735675
0.170539141913
0.169559162237
0.16902455336
0.169312385675
0.170146044523
0.170441220884
0.171469300752
0.173040616242
0.1423672984
0.142380896063
0.142415372072
0.142448256578
0.142498867955
0.142571022262
0.14265556588
0.142752867134
0.142888570051
0.143037897333
0.143204722394
0.143382262854
0.143569035088
0.143762699765
0.143970486851
0.144202670241
0.144442265239
0.144691842008
0.14495516201
0.145237079404
0.145541559162
0.145872416577
0.146241251261
0.146680296329
0.147200927528
0.14775472328
0.148302198828
0.148877995312
0.149491699695
0.150119541053
0.150765955292
0.151448410685
0.152166764693
0.152918264478
0.153700449059
0.154512250773
0.15535398131
0.156226684639
0.15713086196
0.158066802452
0.15903471243
0.160034031708
0.161061864883
0.162112385755
0.163179943108
0.164263101667
0.165361771144
0.166469599831
0.167573581302
0.168664289059
0.169741810728
0.17081489973
0.171901613537
0.172929033341
0.173180102286
0.173438727198
0.173721974267
0.173966925372
0.174153538303
0.174278161467
0.174333772378
0.174328406814
0.174239963341
0.174043966251
0.173740850078
0.173347751676
0.172886321104
0.172377473476
0.171836710183
0.171271604604
0.170638545911
0.169909216243
0.16908279369
0.168223653882
0.167662865355
0.167728851542
0.168431916461
0.169593093298
0.171661688019
0.173947000999
0.142047680304
0.142059710026
0.142090014277
0.142127635099
0.142184545149
0.142258574063
0.142347854682
0.142445654455
0.142582130434
0.142743194419
0.142918522976
0.143102564167
0.143295767863
0.1435042662
0.143722483613
0.143958989414
0.144204211412
0.144462148825
0.144732518299
0.145019717695
0.145327721684
0.145660509203
0.146028171659
0.146460188827
0.146976662369
0.147550379005
0.148121593278
0.148695838707
0.149300127189
0.149926110278
0.150579153275
0.151270338996
0.151999272967
0.152763037003
0.153559993636
0.154388481779
0.15524774307
0.156138781268
0.157063178487
0.15802122241
0.15901345243
0.16004005252
0.161098567531
0.162182596955
0.163284842372
0.164406447046
0.165554655707
0.166722570842
0.167886628388
0.16903818347
0.170179280608
0.171331815101
0.172421787808
0.172701924671
0.172965678059
0.173219628187
0.173465742106
0.173665901627
0.173800353054
0.17386145527
0.173843087917
0.173743349515
0.173552496696
0.173258279755
0.172859845662
0.172367665205
0.171796689669
0.171161313573
0.170471539752
0.16973180752
0.168908799003
0.167966872753
0.166934698098
0.16591144016
0.165121901645
0.164816873753
0.165139531474
0.166177036643
0.168456586817
0.170466662157
0.141705507035
0.141716241347
0.141740797974
0.141783746428
0.141846201106
0.141922001449
0.142015395298
0.14211829378
0.142253188661
0.142421355482
0.142603089611
0.142792539183
0.142989473834
0.143208217033
0.143443004108
0.143687135451
0.143939277249
0.144206952463
0.144487404301
0.144782198952
0.145095614171
0.145431012543
0.145798987313
0.146225977312
0.146733183772
0.147308521354
0.14790492399
0.148494933492
0.149098580859
0.149723507738
0.150378029364
0.151076179365
0.151815692683
0.152590999398
0.153403975738
0.15425079741
0.155128573328
0.156039832351
0.156986411991
0.157968946171
0.158987721427
0.160043358317
0.161134475678
0.162255740261
0.163400641183
0.164570384578
0.165770768248
0.166992540902
0.168220290723
0.169450210816
0.170664143796
0.171833565172
0.172153581988
0.172436352822
0.172698054184
0.172929105317
0.173121135498
0.173253686566
0.173309851434
0.173280816284
0.173161231197
0.172947589589
0.172634500105
0.172215947453
0.171691238098
0.171066167506
0.170349542241
0.16954928581
0.168669194056
0.167705858526
0.166648180457
0.165431492965
0.164056484158
0.162620602949
0.161242247625
0.16003132788
0.159015446427
0.158022019314
0.156564558829
0.153589882523
0.14134243661
0.141353078662
0.141376261382
0.141424112994
0.141487422658
0.141562649431
0.141655410814
0.141765199718
0.141898469738
0.142071395315
0.142258782589
0.142453662078
0.142655437799
0.142878944488
0.14312840937
0.143384347826
0.143645887786
0.14392324727
0.144215093865
0.144520720571
0.144842962332
0.145182591702
0.145552208243
0.145976994285
0.146475868442
0.147046154968
0.147655726763
0.148264758234
0.148871762223
0.149497978466
0.150160295883
0.150864024985
0.151612052461
0.152400642759
0.153230523918
0.154096529353
0.15499468617
0.155928004009
0.156898617506
0.157907688652
0.158955687639
0.16004350912
0.161172049931
0.162339301991
0.163535915438
0.164752500304
0.165994561213
0.167267785912
0.168575282259
0.169923510811
0.171192029967
0.171540154634
0.17183707572
0.17212082972
0.172358879975
0.172540943962
0.172659503033
0.172701628243
0.172654947831
0.172511774625
0.172267455911
0.171918641766
0.171461793394
0.170893481204
0.170212620641
0.169421133535
0.168522066904
0.167516822403
0.166402599539
0.165170024974
0.163806973234
0.16222698509
0.160364273904
0.158256133787
0.155904274624
0.153222696755
0.149992410427
0.145869845768
0.140724330033
0.139416944448
0.140955124954
0.140966357121
0.140990825763
0.141043850419
0.141107426609
0.141181284018
0.141270809969
0.14138537205
0.141515311979
0.141691336214
0.141884563376
0.142085200204
0.142293135212
0.14252280008
0.142782270639
0.143050486631
0.143323574598
0.143611499399
0.143914029019
0.144231734304
0.144566356201
0.144913027824
0.145285408919
0.1457103516
0.146203302836
0.146766387155
0.147379597334
0.148002581557
0.148624422218
0.149256313896
0.149925442899
0.15063717442
0.151391704498
0.152188496516
0.15303278881
0.153921108654
0.154843459252
0.155801549246
0.156798021859
0.157835461251
0.158915729999
0.160040549213
0.161215028504
0.162436508118
0.163681726887
0.164937158191
0.166218276431
0.16755512882
0.168987133184
0.170542429594
0.170903012605
0.171190232455
0.171484954683
0.171738392136
0.171923572578
0.172031752923
0.172055681184
0.171986232994
0.171815054578
0.17153641939
0.171146602769
0.170642739124
0.170021962497
0.169281292661
0.168418246405
0.167430836753
0.16631620217
0.16506834101
0.163675475169
0.162116969243
0.160359921376
0.15834537253
0.155906542194
0.1529268607
0.149287951405
0.14462088457
0.138108013328
0.127935798887
0.108922233942
0.0628646840097
0.140535591536
0.140547368083
0.140575351391
0.14063426506
0.140699077119
0.140772314435
0.140860948461
0.140977408195
0.141103425543
0.141280011778
0.1414788279
0.141685320253
0.141899640224
0.142135786808
0.142403393777
0.142683417403
0.142970589437
0.143270490034
0.143583314937
0.143912798083
0.144262246692
0.14461980385
0.144995779751
0.145422327844
0.145912685246
0.146468288223
0.147078290375
0.147704872523
0.148345055169
0.14899655147
0.149672270789
0.150387469953
0.151151626368
0.151962202722
0.152815931097
0.153721287039
0.154669771186
0.155655873084
0.156682304035
0.157751019334
0.158865971497
0.160035367631
0.161268006124
0.162546681123
0.163835553105
0.165129964259
0.166462561668
0.167890068302
0.169343439145
0.170318428274
0.170600425396
0.170833793765
0.171079091256
0.171270627296
0.171375183703
0.17138425393
0.171291601912
0.171090686154
0.170776063513
0.170343846411
0.169791184443
0.16911546138
0.168313625535
0.167381824727
0.166315257034
0.165107662331
0.163749983783
0.162228225226
0.160520642566
0.158594155996
0.156399087648
0.153868536741
0.150795263112
0.146884282046
0.141875527921
0.135199993425
0.125640206135
0.110779382488
0.0857192465092
0.0440055132021
0.140072608797
0.140084871174
0.140116343056
0.140181625669
0.14024767098
0.140324098542
0.140414036159
0.140530856878
0.140656668354
0.140835023568
0.141039626362
0.14125199094
0.14147262743
0.14171486856
0.141988980886
0.142278560749
0.142582224474
0.142896559825
0.143220543711
0.143561561146
0.143926321791
0.144299966883
0.144681678632
0.145109198879
0.145600049299
0.146150639229
0.146755927235
0.147381149998
0.148028680155
0.148703670235
0.149400873651
0.150123935761
0.150885689273
0.151705265213
0.152577703029
0.153500160186
0.154472146793
0.155487483414
0.15654615353
0.157650553425
0.158807343767
0.160033737867
0.161331604454
0.162665748813
0.164007651118
0.165372400603
0.166814056817
0.168298705913
0.169500136963
0.169934611924
0.1701873128
0.170405309473
0.170588353661
0.170691635556
0.170691896879
0.170580608223
0.170352573768
0.170003560488
0.169530360279
0.168930551826
0.168201903068
0.167341674324
0.166345983818
0.165209271475
0.163923751064
0.162478546584
0.160858199258
0.159040390823
0.156992740262
0.15466827328
0.151998645923
0.148882958028
0.145175867459
0.140488533669
0.134313216207
0.126090887554
0.114723106153
0.0983231397723
0.0735632194509
0.0393926378401
0.139557203087
0.139571957243
0.13960524938
0.139671119788
0.139742296877
0.13982807638
0.139924150787
0.140045159094
0.140178559666
0.140354704701
0.140564601071
0.140783042648
0.141010199426
0.141258459824
0.141538075378
0.14183345325
0.14215015159
0.142482945246
0.142821468615
0.143176037329
0.143555066144
0.143948919212
0.144345096027
0.144771375545
0.145262600269
0.145811189567
0.146412686979
0.147036793019
0.147684961105
0.148374116313
0.149095533373
0.149839476699
0.150608007815
0.151427501078
0.152308728746
0.153251144752
0.154248744587
0.155295017699
0.156387453477
0.157531342926
0.158742942726
0.160038506467
0.161402267213
0.162799073212
0.164224489076
0.165718560354
0.16723186328
0.168464167602
0.169050716359
0.169387184942
0.169673588492
0.169873089841
0.169977975932
0.169976720291
0.169855678198
0.169607711023
0.169229767637
0.168720116045
0.168077481528
0.167300563851
0.166387422854
0.16533481396
0.164137546689
0.16278783691
0.161274536835
0.159582036806
0.157688602123
0.155563929581
0.153165662407
0.150434394489
0.147286310486
0.143601902046
0.139209966389
0.133836081903
0.126899833998
0.117666608819
0.105294904038
0.0884365865731
0.0646537832845
0.0345520123282
0.138995003105
0.139013855298
0.139047822545
0.139107732908
0.139187348295
0.139283288772
0.139388836152
0.139518827391
0.13966666255
0.139840291841
0.140052592476
0.140276542188
0.14051057402
0.140765381239
0.141051144066
0.141353063738
0.141677257057
0.14202677326
0.142383382193
0.142755341051
0.143149113718
0.143562926126
0.143984641109
0.144421288266
0.144906506892
0.145451976031
0.146049811459
0.146673615186
0.147320660504
0.148014825539
0.148751629716
0.149522512609
0.15031098783
0.151134258321
0.152018235935
0.152971721915