/*--------------------------------*- C++ -*----------------------------------*\
| =========                 |                                                 |
| \\      /  F ield         | OpenFOAM: The Open Source CFD Toolbox           |
|  \\    /   O peration     | Version:  v1806                                 |
|   \\  /    A nd           | Web:      www.OpenFOAM.com                      |
|    \\/     M anipulation  |                                                 |
\*---------------------------------------------------------------------------*/
FoamFile
{
    version     2.0;
    format      ascii;
    class       volVectorField;
    location    "542";
    object      U;
}
// * * * * * * * * * * * * * * * * * * * * * * * * * * * * * * * * * * * * * //

dimensions      [0 1 -1 0 0 0 0];


internalField   nonuniform List<vector> 
6400
(
(-9.97183425949e-05 -0.000131843606132 0)
(-0.000267266632575 -9.81744322167e-05 0)
(-0.000388951721458 -7.78227766657e-05 0)
(-0.000520969385622 -6.76434565248e-05 0)
(-0.000616738798496 -4.21389007213e-05 0)
(-0.000685564827699 -2.26198966486e-05 0)
(-0.000721829756206 -1.53399541572e-05 0)
(-0.000750975789366 -2.52159431096e-05 0)
(-0.000833378162154 -3.64459197149e-05 0)
(-0.000915194412745 -3.41376688946e-05 0)
(-0.000949825375192 -3.04689813863e-05 0)
(-0.00102401764885 -3.24328363547e-05 0)
(-0.00109019860076 -2.89421136845e-05 0)
(-0.00114318399319 -2.30012861415e-05 0)
(-0.0011817129589 -2.02799820042e-05 0)
(-0.0012220572331 -2.30560392369e-05 0)
(-0.00127259685668 -2.37325542912e-05 0)
(-0.00131546280715 -2.02245413937e-05 0)
(-0.00134597767421 -1.52830342612e-05 0)
(-0.00137391280948 -1.29427205755e-05 0)
(-0.00141086805528 -1.80553191583e-05 0)
(-0.00145728090981 -2.37052846967e-05 0)
(-0.00150674464853 -2.47693928932e-05 0)
(-0.00155131055447 -2.38269728135e-05 0)
(-0.00159288607754 -2.15951750903e-05 0)
(-0.00163228715367 -1.89094688798e-05 0)
(-0.00167117511522 -1.7645192048e-05 0)
(-0.00170646989772 -1.59317026651e-05 0)
(-0.00173584179029 -1.35284110009e-05 0)
(-0.00176003849208 -1.16367065258e-05 0)
(-0.00177942962963 -1.11852313646e-05 0)
(-0.00179965203449 -1.0203303913e-05 0)
(-0.00181995256778 -8.25722029884e-06 0)
(-0.00183624023234 -8.08871034787e-06 0)
(-0.00185124542094 -7.82451447137e-06 0)
(-0.00187150461861 -7.41749093056e-06 0)
(-0.00188843336893 -7.8377135894e-06 0)
(-0.00189272346776 -6.94788392673e-06 0)
(-0.00190682098027 -4.98655378007e-06 0)
(-0.0019265228311 -4.05704425349e-06 0)
(-0.00193796034314 -6.42385852755e-06 0)
(-0.00193911647387 -5.95404120155e-06 0)
(-0.00193741069256 4.64729834415e-07 0)
(-0.00193283473797 5.08893621216e-06 0)
(-0.00192230368526 7.363248435e-06 0)
(-0.00190704811479 9.92656441544e-06 0)
(-0.00188645452165 1.26354059834e-05 0)
(-0.00185925742924 1.602182295e-05 0)
(-0.00182551038048 1.92891469626e-05 0)
(-0.00178518556852 1.99503391592e-05 0)
(-0.00174198809558 1.80479909263e-05 0)
(-0.00170381329249 2.09909608932e-05 0)
(-0.00165039688879 3.35560366865e-05 0)
(-0.00158665953553 4.11059439842e-05 0)
(-0.00150267675729 4.74954686625e-05 0)
(-0.00138642183849 5.74028621472e-05 0)
(-0.00126431095506 5.7513823955e-05 0)
(-0.00115801349797 5.58343606784e-05 0)
(-0.00105079319921 6.41895974616e-05 0)
(-0.000898047254185 7.01284713367e-05 0)
(-0.000750370305495 6.99158240993e-05 0)
(-0.00058683788055 8.65861775433e-05 0)
(-0.000432642627614 0.000127832094819 0)
(-0.000137959969869 0.000105465384287 0)
(3.03960018936e-05 5.99579778287e-05 0)
(0.000113387394062 3.84578922576e-05 0)
(0.000169965065267 2.70608559543e-05 0)
(0.000216290458434 1.96997888661e-05 0)
(0.000254919594948 1.36441499553e-05 0)
(0.000277185091536 6.66001326894e-06 0)
(0.000285471349675 -4.9817930983e-07 0)
(0.000273672820004 -7.12676867926e-06 0)
(0.000248644566312 -1.32001634059e-05 0)
(0.000228364854499 -1.94323161803e-05 0)
(0.000174859222739 -1.79071616055e-05 0)
(0.000153508331779 -1.7019216826e-05 0)
(0.000101254750887 -1.0919945629e-05 0)
(0.000103832419977 -1.51996105788e-05 0)
(4.44334690194e-05 -1.07292222809e-05 0)
(3.29823034812e-05 -1.98543314068e-05 0)
(-3.76255012317e-05 -0.000185349851348 0)
(-0.000159935142343 -0.000206503047272 0)
(-0.000278399364631 -0.000185403449643 0)
(-0.000354940612653 -0.000148293870334 0)
(-0.000511592134849 -0.000144419241985 0)
(-0.000652274505591 -0.000101864892803 0)
(-0.000733992351655 -6.48187078672e-05 0)
(-0.000790026337868 -8.24776734573e-05 0)
(-0.000849609963714 -0.000105499282791 0)
(-0.000916034372452 -0.000102633553261 0)
(-0.000978798621819 -9.5265438799e-05 0)
(-0.00103615189938 -9.20816896649e-05 0)
(-0.00108935065572 -8.1527573037e-05 0)
(-0.00113687688461 -6.83667897225e-05 0)
(-0.00118329085634 -6.24030559954e-05 0)
(-0.00122781722858 -7.32606046447e-05 0)
(-0.00127321004547 -7.67275695358e-05 0)
(-0.00130990268454 -5.46940933604e-05 0)
(-0.00131066501016 -3.85155546861e-05 0)
(-0.00134633939635 -3.96886720651e-05 0)
(-0.00139503735006 -5.65961578648e-05 0)
(-0.0014488244178 -7.64456725824e-05 0)
(-0.00150793699365 -7.90856789132e-05 0)
(-0.00155713342276 -6.97603722573e-05 0)
(-0.0015870286758 -6.25401924368e-05 0)
(-0.00163240125967 -5.87441946088e-05 0)
(-0.00167394807393 -5.36425743425e-05 0)
(-0.00170664832089 -4.69700239e-05 0)
(-0.00173472016835 -4.04445911649e-05 0)
(-0.00175987967244 -3.52399863343e-05 0)
(-0.00178141789134 -3.25959643485e-05 0)
(-0.00179466325298 -2.91485679308e-05 0)
(-0.00181466863901 -2.31358562859e-05 0)
(-0.00182956086134 -2.36468244204e-05 0)
(-0.00184148040074 -2.57566650247e-05 0)
(-0.0018700154897 -2.22592628253e-05 0)
(-0.0018823404467 -2.25352415729e-05 0)
(-0.0018871802811 -2.34272937889e-05 0)
(-0.0019069621717 -1.96749487371e-05 0)
(-0.00193677484439 -1.35937736797e-05 0)
(-0.00195016287598 -4.67142377755e-06 0)
(-0.00190228402464 3.66632768427e-06 0)
(-0.00187681494333 8.70289076412e-06 0)
(-0.00187759228596 1.2474974336e-05 0)
(-0.00187078479229 1.68769760374e-05 0)
(-0.00186399921419 2.28623009402e-05 0)
(-0.00185450334381 3.08053163695e-05 0)
(-0.00183519285555 4.02045629896e-05 0)
(-0.00181475527245 5.05113720468e-05 0)
(-0.00178476334721 6.0222172976e-05 0)
(-0.00173597260445 6.76071801671e-05 0)
(-0.0016597477203 7.44435387313e-05 0)
(-0.00158788687369 8.46454515263e-05 0)
(-0.00158626424764 0.000107615387296 0)
(-0.00149212924666 0.000135819620733 0)
(-0.00139306472169 0.00015665485176 0)
(-0.00131700482082 0.00016636661284 0)
(-0.0012103254606 0.000174862649177 0)
(-0.00108472071093 0.000196226487185 0)
(-0.000949962919078 0.00022323402495 0)
(-0.000803260734822 0.000252569315262 0)
(-0.000556950507201 0.000266572573467 0)
(-0.000405515043016 0.000369855125484 0)
(-0.000136649140777 0.000322232136328 0)
(2.75449053405e-05 0.00019730318741 0)
(0.000111033874361 0.000112629782543 0)
(0.000165582968526 7.69828593223e-05 0)
(0.000222349684269 6.21908230645e-05 0)
(0.000262004223296 4.34341888465e-05 0)
(0.000288291805336 2.03373529391e-05 0)
(0.000290875159587 -5.01354604126e-06 0)
(0.000273919779274 -2.64737194035e-05 0)
(0.000240083712452 -3.76207916441e-05 0)
(0.000224057710894 -4.79018773964e-05 0)
(0.000194058279848 -5.15221777274e-05 0)
(0.000164188428764 -5.05807053348e-05 0)
(0.000132546375251 -4.44289294346e-05 0)
(0.000103382581664 -4.58704025059e-05 0)
(6.3364798564e-05 -4.83140495602e-05 0)
(2.91015354589e-05 -7.77882465058e-05 0)
(-5.57671406431e-05 -0.000320035724787 0)
(-0.000154294161729 -0.000345719455899 0)
(-0.000238470881788 -0.000318768307521 -9.23473707409e-29)
(-0.000401112206477 -0.000319282188716 8.59248023028e-29)
(-0.000551181409952 -0.00031185528454 7.59210182885e-29)
(-0.000645860373721 -0.00024965289864 -6.9283907377e-29)
(-0.000713219659803 -0.000134256727507 6.96333890452e-29)
(-0.000771775738398 -0.000141347768952 -6.7678506362e-29)
(-0.000834045933511 -0.000171347304403 0)
(-0.000904673840644 -0.0001732301627 0)
(-0.000973473251631 -0.000161375133433 0)
(-0.00103366032628 -0.000146674812473 0)
(-0.00108692553422 -0.000129313628915 0)
(-0.00113314667787 -0.000116359466088 0)
(-0.00118006636464 -0.000108709895957 0)
(-0.00122455547481 -9.61371478296e-05 0)
(-0.00114132947332 -7.18763570418e-05 0)
(-0.00111727112823 -5.7129658265e-05 0)
(-0.00115729019803 -6.77703489088e-05 0)
(-0.00123647202013 -0.000102363307573 0)
(-0.00138665914495 -0.000136095914091 0)
(-0.00146600831332 -0.000141663990103 0)
(-0.00149706219881 -0.000129775974131 0)
(-0.00154644190673 -0.000115957495258 0)
(-0.00159649513959 -0.000106114934244 0)
(-0.00163531674419 -9.85077583122e-05 0)
(-0.00167044377148 -8.81350316119e-05 0)
(-0.00170355588301 -7.70717979374e-05 0)
(-0.00173233225857 -6.71130753644e-05 0)
(-0.0017560519677 -5.91487530843e-05 -1.3060991603e-28)
(-0.00178031483901 -5.21214263361e-05 1.26496205782e-28)
(-0.00178769449982 -4.58834082006e-05 0)
(-0.00180483321692 -3.88649949428e-05 0)
(-0.00183483579711 -3.38971393344e-05 0)
(-0.00182012398095 -4.04150531206e-05 0)
(-0.00184950962524 -4.34481393365e-05 0)
(-0.0018884732959 -3.7555200637e-05 0)
(-0.00187580636533 -3.83585793001e-05 0)
(-0.00189989534175 -4.08254247059e-05 0)
(-0.00193429355505 -2.93756530253e-05 0)
(-0.00194985433428 -3.56706689296e-06 0)
(-0.00194821232403 1.5641863708e-05 0)
(-0.00194315544123 1.88251259428e-05 0)
(-0.00193725592405 2.06625729896e-05 0)
(-0.00192676068257 2.70726233119e-05 0)
(-0.00191132536561 3.64406480032e-05 0)
(-0.00189114614362 4.90786753709e-05 0)
(-0.00186597302186 6.36677987434e-05 0)
(-0.00183573987821 8.02046215159e-05 0)
(-0.00179980189713 9.98359142657e-05 0)
(-0.0017573841437 0.000120395373495 0)
(-0.00170775108651 0.000136072423145 0)
(-0.0016499048479 0.000146811775516 0)
(-0.0015726861786 0.000175261924472 0)
(-0.00147887395159 0.000213779879061 0)
(-0.0014035835086 0.00024240053826 0)
(-0.0013113491704 0.00026643286593 0)
(-0.00119519099305 0.000295237928919 0)
(-0.00106174472179 0.000331026631893 0)
(-0.000912997229325 0.000375638260166 0)
(-0.000741826972536 0.000433821387947 0)
(-0.000554352459469 0.000509986139903 0)
(-0.000362302258791 0.000609924178685 0)
(-0.000135081906768 0.000492101177244 0)
(2.20432181536e-05 0.000292738128342 0)
(0.000119241499054 0.000193000844608 0)
(0.000191602667783 0.000142640380817 0)
(0.000240346554422 0.000105403219286 0)
(0.000273635361852 6.83531304746e-05 0)
(0.000290395309574 2.72874101028e-05 0)
(0.000287273604527 -1.20392439998e-05 0)
(0.00027285478443 -4.09522762493e-05 0)
(0.0002610711829 -6.01039064555e-05 0)
(0.000239459951232 -7.78492060221e-05 0)
(0.000202092773902 -8.84657416357e-05 0)
(0.000161869904673 -8.69304589828e-05 0)
(0.000124301569712 -7.96526652924e-05 0)
(9.35155575371e-05 -8.47955369861e-05 0)
(6.36147503892e-05 -0.00010819000244 0)
(1.62477039848e-05 -0.000106484877276 0)
(-5.58305182026e-05 -0.000474535803635 0)
(-7.51692746907e-05 -0.000325202631847 0)
(-0.000195426292704 -0.000479235597112 0)
(-0.000347404307257 -0.000474294366722 0)
(-0.000479743185918 -0.000401810149744 0)
(-0.000286971879602 -0.000160902444454 0)
(-0.000362318528736 -0.000161132548247 0)
(-0.000657684643097 -0.000278537968756 0)
(-0.000789569276738 -0.000284670459342 0)
(-0.000879256373102 -0.000257080064318 0)
(-0.000960724077903 -0.000234089141871 0)
(-0.00102858835906 -0.000207949735131 0)
(-0.00108546792969 -0.000181013571942 0)
(-0.00112430656559 -0.000144363445686 0)
(-0.00108109321654 -9.76121041442e-05 0)
(-0.00103803257174 -6.67988690394e-05 0)
(-0.00104367000283 -6.49791265457e-05 0)
(-0.00110840815437 -0.000102212559063 0)
(-0.00124334913165 -0.00016144766972 0)
(-0.0013654021439 -0.000212541581964 0)
(-0.00140962701494 -0.000217533370586 0)
(-0.0014563558386 -0.000197266370704 0)
(-0.00150764289292 -0.000178636405417 0)
(-0.00155282934127 -0.00016395139129 0)
(-0.00159350729282 -0.000149217136425 0)
(-0.00163052897925 -0.000134839090512 0)
(-0.00166439982019 -0.000121244336735 0)
(-0.00170034338337 -0.000107450359645 0)
(-0.00172600393486 -9.39470268676e-05 0)
(-0.00175621541639 -8.22386504904e-05 0)
(-0.00176740771982 -7.17131998104e-05 0)
(-0.00179351801947 -6.08176271864e-05 0)
(-0.00178734877006 -4.9152565172e-05 0)
(-0.00180879764116 -4.82780204879e-05 0)
(-0.00184981534994 -5.61968928111e-05 0)
(-0.00184148327126 -6.4209562372e-05 0)
(-0.00187883372689 -6.34858355517e-05 0)
(-0.00191624261189 -6.05883798102e-05 0)
(-0.00193038352687 -5.83305559235e-05 0)
(-0.00194026084135 -4.16718261367e-05 0)
(-0.00194801633721 -1.3508142046e-05 0)
(-0.00195008242412 9.798600855e-06 0)
(-0.00194787779261 2.17368074949e-05 0)
(-0.00194215488093 3.01022598551e-05 0)
(-0.00193165139016 4.08939542535e-05 0)
(-0.00191628313423 5.49228331404e-05 1.16035129554e-28)
(-0.00189615895833 7.20056444073e-05 -1.16866274292e-28)
(-0.00187106699843 9.16042646031e-05 0)
(-0.00184073820715 0.000113720162826 0)
(-0.00180458797172 0.000138320590283 0)
(-0.00176161190988 0.00016383163583 0)
(-0.00171009524027 0.000188968226082 0)
(-0.00164810464245 0.000217968751099 0)
(-0.00157373581835 0.000256837670181 0)
(-0.00149023736334 0.000296945062893 0)
(-0.00139980107691 0.000335037719929 0)
(-0.0012949673455 0.000378277982795 0)
(-0.00116950130568 0.000427601591791 2.31592094793e-28)
(-0.00102270718681 0.000484533846361 -2.7119779754e-28)
(-0.000854253240758 0.000552105960118 0)
(-0.000664390119099 0.000629200930071 0)
(-0.00046555396649 0.000707850479735 0)
(-0.0002956865171 0.000747815578011 0)
(-0.00013793379674 0.000659154360036 0)
(3.31614298255e-05 0.000460826454205 0)
(0.000144499642787 0.000280145813612 0)
(0.000212828097984 0.000195950203824 0)
(0.000265129102462 0.000143574647865 0)
(0.000299632556563 9.09337279976e-05 0)
(0.000321889291995 3.44386404663e-05 0)
(0.000324402384623 -1.86695611622e-05 0)
(0.000310577846345 -5.94140481688e-05 0)
(0.000278157011573 -9.27757157666e-05 0)
(0.000222826593739 -0.000114164609765 0)
(0.000178695675029 -0.000126080687288 0)
(0.000138178584883 -0.000130198398749 0)
(9.59902314977e-05 -0.000119813899027 0)
(5.41593106603e-05 -9.67275713099e-05 0)
(3.85819048673e-05 -0.000120852502557 0)
(1.28372587141e-05 -0.000138086324954 0)
(-7.50310921124e-06 -0.00047947445134 0)
(-4.00842877993e-05 -0.000395806221394 0)
(-0.000175701695352 -0.000624469685138 0)
(-0.000297533051824 -0.000576312852996 0)
(-0.000329424834618 -0.000385443551167 0)
(-0.000265933682005 -0.000216445852079 0)
(-0.000447059066948 -0.00034517401795 0)
(-0.000656380100106 -0.00046036012115 0)
(-0.000743289595783 -0.000406146860081 0)
(-0.00084567582799 -0.000352793283649 0)
(-0.000935061638545 -0.000320887330382 0)
(-0.00101051777493 -0.000278443997041 0)
(-0.00102761329872 -0.000198290541117 0)
(-0.000960559484011 -0.000115650017229 0)
(-0.000981550832669 -8.56628504381e-05 0)
(-0.00103955315818 -9.78385689422e-05 0)
(-0.00113546884201 -0.000145368558923 0)
(-0.00124908380597 -0.000212977338744 0)
(-0.00132786010674 -0.000258783797264 0)
(-0.00135579889127 -0.000263863324862 0)
(-0.0014027468555 -0.000259552374861 0)
(-0.0014586202189 -0.000248689493879 0)
(-0.00150546983632 -0.000228947699212 0)
(-0.00154928514192 -0.000207596587832 0)
(-0.00158875373246 -0.000188064056066 0)
(-0.00162377375035 -0.00017132646994 0)
(-0.00166253615545 -0.000154719042997 0)
(-0.00168799441001 -0.000137549475473 0)
(-0.0017266627993 -0.000120762033814 0)
(-0.00173701676651 -0.000103753823178 0)
(-0.00177374501915 -8.92797990978e-05 -1.25252560326e-28)
(-0.00175245379688 -7.47234594859e-05 1.18794928934e-28)
(-0.00179592925548 -6.85874454659e-05 0)
(-0.00183365532301 -6.782392434e-05 0)
(-0.00183283909318 -7.66945746326e-05 0)
(-0.00187834350043 -9.04099799891e-05 0)
(-0.00190394924042 -9.46443098595e-05 0)
(-0.00192247780942 -8.42879010456e-05 0)
(-0.00193513545472 -6.83140576507e-05 0)
(-0.00194413451074 -4.67323519266e-05 0)
(-0.00195125640446 -1.94531739026e-05 0)
(-0.00195478640368 5.63786243396e-06 0)
(-0.00195396949414 2.36643089608e-05 0)
(-0.00194867702836 3.83131149947e-05 0)
(-0.00193846487303 5.41679763664e-05 0)
(-0.00192339490647 7.28652833875e-05 0)
(-0.00190350228526 9.46257830044e-05 0)
(-0.00187854587943 0.000119295328505 0)
(-0.00184809128404 0.000146950261531 0)
(-0.0018114258646 0.000177609131205 0)
(-0.00176740825662 0.000210763028556 0)
(-0.00171430991735 0.00024657445349 0)
(-0.0016503514592 0.000287370787209 0)
(-0.00157455666699 0.000334519359214 0)
(-0.00148790563133 0.000384938406854 0)
(-0.00138939118835 0.000439685885818 0)
(-0.00127290027201 0.000502997836784 0)
(-0.00113277346608 0.000575874065607 0)
(-0.000967146636454 0.000658039664728 0)
(-0.000778276850914 0.000746795585202 0)
(-0.000576413114726 0.000830695470785 0)
(-0.000386167697907 0.000887661970693 0)
(-0.000238582013395 0.000879906849368 0)
(-9.99532360542e-05 0.000817005376894 0)
(7.04477827273e-05 0.000626397697013 0)
(0.00018457006508 0.00039244680882 0)
(0.000257887888117 0.000265203921557 0)
(0.00030880897561 0.000185435763246 0)
(0.000340820142998 0.000114178029712 0)
(0.000361608251955 4.25839378467e-05 0)
(0.000367233681695 -2.91945460215e-05 0)
(0.000335784489187 -9.62839773646e-05 0)
(0.000265921070137 -0.000139775712649 0)
(0.00021141966166 -0.000164775340743 0)
(0.000161260773614 -0.000178240287275 0)
(0.000112938475618 -0.00017813933436 0)
(7.01317393751e-05 -0.000148329448817 0)
(4.24252065196e-05 -0.000124607261342 0)
(2.55251058636e-05 -0.000150442002513 0)
(6.22960080794e-06 -0.000153174461421 0)
(-1.47007493803e-07 -0.000450349341446 0)
(-4.78237587111e-05 -0.000480568242757 0)
(-0.000176189916179 -0.00071416374721 0)
(-0.00025041984849 -0.000602301200619 0)
(-0.000195911860298 -0.000307063647732 0)
(-0.00026896078754 -0.000312382579454 0)
(-0.000543162665193 -0.000550574587552 0)
(-0.000628746616583 -0.000560851504618 0)
(-0.000710274814166 -0.000503929333463 0)
(-0.000805540495645 -0.000452285826178 0)
(-0.000897057033946 -0.000388849035896 0)
(-0.000857000953244 -0.000271505936292 0)
(-0.000794733548113 -0.000159130209138 0)
(-0.000855020681778 -0.000131467384212 0)
(-0.00093066606408 -0.000149578773785 0)
(-0.0010631394449 -0.000203925034316 0)
(-0.00119169554892 -0.000262235623884 0)
(-0.00127430173862 -0.000291344633048 0)
(-0.0012910661372 -0.000291434444981 0)
(-0.00134555814386 -0.000304971480858 0)
(-0.00140789149956 -0.000313084790343 0)
(-0.00145512778583 -0.000298894672764 0)
(-0.00149960009896 -0.000275432379758 0)
(-0.00154102931883 -0.000251132426382 0)
(-0.00158586475978 -0.000228485118162 0)
(-0.00162103781458 -0.00020489516264 0)
(-0.00163883112852 -0.000186193232396 0)
(-0.0016915970315 -0.000168891773607 0)
(-0.00169315453322 -0.00014457597864 0)
(-0.00174723885245 -0.000122275421035 0)
(-0.0017104715025 -9.9534713804e-05 0)
(-0.00177260977 -9.57033305425e-05 0)
(-0.00174685455137 -9.23135839428e-05 0)
(-0.00181206559304 -9.85158025779e-05 0)
(-0.00186859134788 -0.0001120512633 0)
(-0.00189536657771 -0.000122273792558 0)
(-0.00191322268853 -0.000115364492849 0)
(-0.00192806929193 -9.89961549856e-05 0)
(-0.00193995188559 -7.83195860953e-05 0)
(-0.00194944692235 -5.37154849839e-05 0)
(-0.00195677198193 -2.56355309608e-05 0)
(-0.00196100080986 1.65966022492e-06 0)
(-0.00196110015557 2.48778465647e-05 0)
(-0.00195644168572 4.55434464535e-05 0)
(-0.00194681102133 6.67822289253e-05 0)
(-0.0019322479679 9.04018216609e-05 0)
(-0.00191276087951 0.000117051757335 0)
(-0.00188801239103 0.000146970053634 0)
(-0.00185739286522 0.000180458166096 0)
(-0.0018200750185 0.000217818537757 0)
(-0.00177487193136 0.00025927347711 0)
(-0.00172014713474 0.000305487384019 0)
(-0.00165422615565 0.000357719424252 0)
(-0.00157587998339 0.000416415893428 0)
(-0.00148402715316 0.000481528048368 0)
(-0.0013754327737 0.000556045156909 0)
(-0.00124420687762 0.000643395263624 0)
(-0.0010860544578 0.000742938322044 0)
(-0.00090209072024 0.000849258718871 0)
(-0.000700135185862 0.000949019331217 0)
(-0.000499259911646 0.00102163932515 0)
(-0.00032343825328 0.00103810186673 0)
(-0.000171092815079 0.000965747997878 0)
(-4.11933572737e-05 0.000988157040697 0)
(0.000112908934771 0.000746226855989 0)
(0.000218760262562 0.00048357186653 0)
(0.000302860733696 0.000331724563563 0)
(0.000365640125899 0.00022838147928 0)
(0.000401234841794 0.000137908122257 0)
(0.000430194334654 4.73031919208e-05 0)
(0.000422490533816 -6.18889621955e-05 0)
(0.000343103762157 -0.00015238034812 0)
(0.000265921353158 -0.000200824765968 0)
(0.000204178193842 -0.000228621019405 0)
(0.000139341517928 -0.000236494897336 0)
(8.93653713457e-05 -0.000223198152182 0)
(5.06426883949e-05 -0.000172065637731 0)
(2.82032878529e-05 -0.000146495731489 0)
(1.43757541725e-05 -0.000166728953461 0)
(3.71508610348e-06 -0.000162469533543 0)
(-1.70583395964e-05 -0.000490026307551 0)
(-0.000103136841737 -0.000621961953566 0)
(-0.000225045127157 -0.00078017574731 0)
(-0.000260352470494 -0.000729167148853 0)
(-0.000187050174338 -0.000387579734102 0)
(-0.000378878739089 -0.000543403647568 0)
(-0.000551830823453 -0.000669921170628 0)
(-0.000604974244697 -0.000635480687444 0)
(-0.000683589826725 -0.000582355381733 0)
(-0.000740550671382 -0.000525829197224 0)
(-0.000861494714281 -0.000435099303899 3.18023004178e-28)
(-0.000696586619241 -0.000224760880669 -1.99098782168e-28)
(-0.000787880831296 -0.00019607767915 0)
(-0.000839469296689 -0.000206115804624 0)
(-0.000964827352655 -0.000263924934387 0)
(-0.00111296827332 -0.000338627270999 0)
(-0.00120434627218 -0.000355660761912 0)
(-0.00120669691496 -0.000325977377851 0)
(-0.00127214744659 -0.000338011061199 0)
(-0.00135167199149 -0.000366049381564 0)
(-0.00139870282732 -0.000365553070222 0)
(-0.00144769351394 -0.000346617056516 0)
(-0.00149454944752 -0.000321599256254 0)
(-0.00153815916594 -0.000293431997708 0)
(-0.00157044407765 -0.000263002535002 0)
(-0.00159421088633 -0.000233870729927 0)
(-0.00164498787998 -0.000215416925477 0)
(-0.00163477769336 -0.000195285831311 0)
(-0.00170837741676 -0.000170120451677 0)
(-0.00166469855711 -0.000128619102921 0)
(-0.00173879131435 -0.000119939813047 0)
(-0.00171660435386 -0.000120332659112 1.1645949852e-28)
(-0.00178322445176 -0.000126173476345 -1.19227361323e-28)
(-0.00182010381006 -0.000144549095183 0)
(-0.00188241108772 -0.000155979243337 0)
(-0.00190483801496 -0.000148232969364 0)
(-0.00191958201451 -0.000132236887841 0)
(-0.00193336252108 -0.000112110434108 0)
(-0.00194593695146 -8.86381221991e-05 0)
(-0.00195630461309 -6.17740359163e-05 0)
(-0.00196406433146 -3.21187183308e-05 0)
(-0.00196883926068 -2.24876492929e-06 0)
(-0.00196965754544 2.55983105413e-05 0)
(-0.00196573103532 5.18728742799e-05 0)
(-0.00195682451966 7.85619450715e-05 0)
(-0.00194294830659 0.000107327601217 0)
(-0.00192399483785 0.000139133054447 0)
(-0.00189948479927 0.000174603531731 0)
(-0.00186868636805 0.000214335745187 0)
(-0.00183072685244 0.00025896386792 0)
(-0.00178442698671 0.000309196650791 0)
(-0.00172817607953 0.000365971939483 0)
(-0.00166012549083 0.000430387112477 0)
(-0.00157820859528 0.000503545465834 0)
(-0.00147952083793 0.000587567730511 0)
(-0.00135936418317 0.000686197003869 0)
(-0.00121240739132 0.000800911592651 0)
(-0.0010368526555 0.000926508504031 0)
(-0.000838385327665 0.00104955679741 0)
(-0.000631016949249 0.00115040286478 0)
(-0.000433351990426 0.00120291776744 0)
(-0.00026339645737 0.00119187879629 0)
(-0.000114494611009 0.00115817528249 0)
(3.57443153852e-06 0.00109493583657 0)
(0.000142198079612 0.000863879696218 0)
(0.000261294406324 0.00057265973203 0)
(0.000374998451076 0.000423019829741 0)
(0.00046232944855 0.000295827218768 0)
(0.000509665292174 0.000170405363889 0)
(0.000523261755712 3.05040015124e-05 0)
(0.000468169103966 -0.000124443598444 0)
(0.000362240680892 -0.000227043476757 0)
(0.000278530742592 -0.000284126269841 0)
(0.000190610222621 -0.000307387355395 0)
(0.000113567859074 -0.000301850118484 0)
(6.04361111439e-05 -0.000254946050731 0)
(2.97753461872e-05 -0.000202078492193 0)
(7.79594155092e-06 -0.000164142548716 0)
(-4.38191788968e-07 -0.000172669129738 0)
(-2.00925231655e-08 -0.000169379365319 0)
(-3.42849137426e-05 -0.000571048768089 0)
(-0.000143389712572 -0.000754315272248 0)
(-0.000249541819078 -0.000815985496073 0)
(-0.000171137243522 -0.000510943566176 0)
(-0.000197493133508 -0.000483037765973 0)
(-0.000431897907329 -0.000739390434281 0)
(-0.000512422538378 -0.000744609038851 0)
(-0.000585765701231 -0.000709521984834 0)
(-0.00063690828268 -0.000640333669835 0)
(-0.000717422660691 -0.000579114024763 0)
(-0.000606800952427 -0.000351113810697 0)
(-0.00068900480051 -0.000268623090026 0)
(-0.000769247009283 -0.000264463780673 0)
(-0.000838421696813 -0.000300040600702 0)
(-0.00101885890852 -0.000399759595295 0)
(-0.00112731806216 -0.00043601400042 0)
(-0.00112084778501 -0.00038798316807 0)
(-0.00117959959326 -0.0003778532155 0)
(-0.00127846913977 -0.000412219817253 0)
(-0.00134226074917 -0.000426063528468 0)
(-0.00138684319499 -0.000414405035636 0)
(-0.00143198035725 -0.000393207448211 0)
(-0.00148311949335 -0.000369640571371 0)
(-0.00152637363821 -0.000337646600802 0)
(-0.00157386479885 -0.000295810559045 0)
(-0.00157709877516 -0.00026638482405 0)
(-0.00164339539903 -0.000243363959346 0)
(-0.00164642382271 -0.000213752920885 0)
(-0.00163791673953 -0.000183222638542 0)
(-0.00167418152888 -0.000161682000019 0)
(-0.00176021228461 -0.000153583963093 0)
(-0.00174775569965 -0.000144352645304 0)
(-0.00176711272029 -0.000168815895437 0)
(-0.00186076662057 -0.000194490253042 0)
(-0.00188782985079 -0.000192044233537 0)
(-0.00190835942089 -0.000171318067545 0)
(-0.00192518787528 -0.000148685111017 0)
(-0.00193970954579 -0.000125537082886 0)
(-0.00195304144748 -9.9904580354e-05 0)
(-0.0019643936463 -7.0902625249e-05 0)
(-0.00197289992486 -3.9124441737e-05 0)
(-0.00197823532109 -6.36713232254e-06 0)
(-0.00197976208942 2.57978025766e-05 0)
(-0.00197669389624 5.73342156403e-05 0)
(-0.00196867304025 8.9437596983e-05 1.12420481909e-28)
(-0.00195562529834 0.000123528465471 -1.12146212996e-28)
(-0.00193729558884 0.000160787271565 0)
(-0.00191306728243 0.000202170265099 0)
(-0.00188214845191 0.000248549748045 0)
(-0.00184368649033 0.000300862835188 0)
(-0.00179652322616 0.000360239377569 0)
(-0.00173899061607 0.000428080184053 0)
(-0.00166887100945 0.000506140146352 0)
(-0.00158307142448 0.000596843026909 0)
(-0.00147714722877 0.00070372245191 0)
(-0.0013455936222 0.000829844992372 0)
(-0.00118430708694 0.000972969275401 0)
(-0.000994152964287 0.00112233764344 0)
(-0.000783484582101 0.00125843849981 0)
(-0.000565729579958 0.00135803145485 0)
(-0.000358346943241 0.00139274676475 0)
(-0.000181257764402 0.0013583644049 0)
(-4.17949637868e-05 0.00128124511558 0)
(5.32614465611e-05 0.00117714499269 0)
(0.000179787723856 0.0010810055979 0)
(0.000317747552075 0.00069993855506 0)
(0.000459368125455 0.000530237374166 0)
(0.000576815497037 0.000371223757757 0)
(0.000624688290204 0.000187135078552 0)
(0.000612213981274 -1.77594020121e-05 0)
(0.000522006915333 -0.000210623205454 0)
(0.000402409560005 -0.00033020703641 0)
(0.000286745507466 -0.000394303249842 0)
(0.000167505956979 -0.000406167711422 0)
(7.60415472063e-05 -0.000370255305421 0)
(2.05992765192e-05 -0.000291837541688 0)
(-7.71893962338e-06 -0.000228927702892 0)
(-2.18540220435e-05 -0.000179660054824 0)
(-2.16194259841e-05 -0.000168598290494 0)
(-7.78629868188e-06 -0.000165559298177 0)
(-4.74340410211e-05 -0.000672234262163 0)
(-0.000161312813003 -0.000860823801709 0)
(-0.000213914981862 -0.00084612179855 0)
(-0.000165348576102 -0.000560421181612 0)
(-0.0002674674416 -0.000634341601906 0)
(-0.000440906510661 -0.000837258276378 0)
(-0.000477087536018 -0.000814425258636 0)
(-0.000568251216141 -0.000779358860067 0)
(-0.000559351995642 -0.000651840429161 0)
(-0.000720852350907 -0.000650378421535 0)
(-0.000588678179359 -0.000387940235195 0)
(-0.000694207660648 -0.000346054954209 0)
(-0.000760060734278 -0.000347558715679 0)
(-0.000888764876897 -0.00042916618765 0)
(-0.00103384953611 -0.000519811640397 0)
(-0.00110881668596 -0.000499961361284 0)
(-0.00110107643269 -0.000434313014016 0)
(-0.00118302549256 -0.000452107037882 0)
(-0.00126698154779 -0.00048374109307 0)
(-0.00132530670916 -0.000483123003262 0)
(-0.00137786747798 -0.000464047892494 0)
(-0.00141877939131 -0.000437277708552 0)
(-0.00146655291143 -0.000411656688305 0)
(-0.00149232617195 -0.00037780842276 0)
(-0.00151778287058 -0.000323988263938 0)
(-0.00159136477594 -0.000296295636652 0)
(-0.0015505648592 -0.000267981234902 0)
(-0.00167313588598 -0.000242575822498 0)
(-0.00162615951733 -0.000211638385028 0)
(-0.00173159086433 -0.00020625877204 0)
(-0.00168765694555 -0.000181651730263 0)
(-0.00179182127204 -0.000185969908721 0)
(-0.00183229782011 -0.000215142865334 1.25515995138e-28)
(-0.00186641427343 -0.00023380029154 -1.26240796685e-28)
(-0.00189119684088 -0.000218717055768 0)
(-0.00191240246483 -0.000192921913028 0)
(-0.00193123667177 -0.000166464724739 0)
(-0.00194715296603 -0.000140231578384 0)
(-0.00196126087927 -0.00011225885535 0)
(-0.00197345883993 -8.10909431042e-05 0)
(-0.00198294469027 -4.68908045352e-05 0)
(-0.00198915099798 -1.09992571501e-05 0)
(-0.00199151502252 2.53325076494e-05 0)
(-0.00198942314557 6.18621602968e-05 0)
(-0.00198248939817 9.93242319323e-05 0)
(-0.00197042687185 0.000138918221484 0)
(-0.00195279729703 0.000181935523482 0)
(-0.00192892664552 0.000229579748043 0)
(-0.00189804597592 0.000282944659863 0)
(-0.00185935206028 0.000343231682148 0)
(-0.00181174294685 0.000412039789455 0)
(-0.00175351774634 0.000491569259538 0)
(-0.00168206602554 0.000584822547403 0)
(-0.00159330459985 0.000695778800995 0)
(-0.00148154282483 0.000828565854796 0)
(-0.00134079922851 0.000984225101109 0)
(-0.0011680365497 0.00115590317887 0)
(-0.000964042599555 0.00133030502384 0)
(-0.000735640456353 0.00148404559172 0)
(-0.000495506132738 0.00158816804604 0)
(-0.000269423136014 0.00159964885196 0)
(-8.86770286549e-05 0.00151604214076 0)
(4.1288625175e-05 0.00139327555879 0)
(0.000139523523252 0.00127297821522 0)
(0.000231933509185 0.00116173874098 0)
(0.000408369360175 0.000941188892733 0)
(0.000555996871273 0.000620361937567 0)
(0.000726693795216 0.000467295281678 0)