/*--------------------------------*- C++ -*----------------------------------*\
| =========                 |                                                 |
| \\      /  F ield         | OpenFOAM: The Open Source CFD Toolbox           |
|  \\    /   O peration     | Version:  v1806                                 |
|   \\  /    A nd           | Web:      www.OpenFOAM.com                      |
|    \\/     M anipulation  |                                                 |
\*---------------------------------------------------------------------------*/
FoamFile
{
    version     2.0;
    format      ascii;
    class       volScalarField;
    location    "523";
    object      alpha;
}
// * * * * * * * * * * * * * * * * * * * * * * * * * * * * * * * * * * * * * //

dimensions      [0 0 -1 0 0 0 0];


internalField   nonuniform List<scalar> 
6400
(
0.874575428661
1.37788898191
2.16733636205
2.65372688095
3.12125935668
3.59919202586
4.24067534193
4.96601302744
5.3233210172
5.90772540287
7.11248002832
7.89046768284
8.52704841603
9.26284088633
10.203768282
11.18639065
12.0345758565
12.831534169
13.5028163929
13.8632803893
13.9791650679
14.1999106896
14.7442451077
15.6113503321
16.5749016456
17.4274704416
18.101724397
18.7179381684
19.3857336581
20.1196372797
20.8647102389
21.4109722009
21.6824805848
21.8133243925
21.8368057157
21.7257213135
21.7921700044
22.1302124325
22.1128966844
21.8462489906
21.9841832988
22.670368015
23.3733834733
23.7317237659
23.807074473
23.6890956966
23.4474093898
23.1329253026
22.7583425315
22.3437264486
21.7858905411
20.8255430416
19.5884200526
18.1200815623
16.919622482
16.0908457098
14.8128011369
12.6944644371
10.4323459423
8.82437224935
7.12758416319
5.37184181782
3.50234306642
4.5414044858
8.56440202336
13.5176236795
16.5291600436
16.2621536281
14.306418296
12.7320345838
11.9052430891
12.1396667375
12.7042674516
12.6017398921
14.6547870004
14.0996934703
15.9715576467
9.87453485249
12.869860395
4.81163257384
3.13456360172
2.4903295261
3.088551531
4.33016056287
4.19569766803
4.04352015383
4.22733225057
4.64316926429
5.24335788931
6.01282902226
6.95068798513
7.88543348035
8.70373786625
9.48551797837
10.2789396924
11.1904847737
12.1467567012
13.0666735511
14.077702702
14.2557572306
14.1601551407
14.3372581086
14.8341478857
15.6783945003
16.7978896784
17.5784882714
18.2156289465
18.8781918498
19.5659597177
20.266988169
20.975593908
21.6347358393
21.9027892682
22.0325622652
22.0997810091
21.8711757673
22.0021807733
22.3628380196
22.2751668656
21.8292478718
21.9285598614
23.3679985131
24.4809811453
24.724694049
24.7262812778
24.4930851091
24.1015464175
23.681803163
23.0818857672
22.4504847224
21.9886668063
21.738336224
20.7934294545
18.3455964422
17.3085121641
16.1717166935
14.0980859098
12.0413529099
10.1020576491
8.19663727676
6.48331595883
5.76972895227
3.91184850718
4.92608820625
8.67597238018
14.5507536982
18.3243023075
17.0809307112
14.9469206909
13.0622442987
12.4014570757
12.8512460469
13.9721377609
13.4124057814
13.2732957046
12.7562925707
11.5625394027
9.72557173056
8.17527207692
4.26063249935
3.19905061397
2.79408688038
3.30453406692
3.55365638926
4.04258081325
4.45638459654
4.43208382135
4.55491795035
5.15163982471
5.99161728874
6.93432252074
7.88883700185
8.7555194263
9.54364665694
10.1922727366
11.01341583
13.7126609777
15.7311291582
16.1052412971
15.4300434879
13.9704560958
13.9653990445
14.974362547
15.8743556528
16.7004991908
17.5643677494
18.3265354101
18.9922251779
19.6586860278
20.3610838687
21.0279925955
21.7968179727
22.0718371191
21.9198918581
22.3930245629
22.1786112448
21.8960941373
22.5108764343
22.4541944489
22.0563107922
22.1673141789
22.850526694
23.5453698767
23.9105778307
24.0106910073
23.9361733338
23.7277336798
23.4063770363
22.9747362361
22.4572304726
21.8572812552
21.0638719186
19.950520645
18.8237377998
17.7491592858
15.9974492088
14.0052119173
12.0531252318
10.1608773324
8.37750330244
6.85423905305
5.43549783744
4.4840465568
6.21266338565
11.0238486216
15.5357308271
17.759137513
17.9021022175
16.3511371657
14.719608659
14.0704608726
14.0094120105
13.3762203131
12.8021888958
12.7853374553
12.4451968097
11.4636825869
9.84105436353
7.40915120855
7.5883038972
3.16800888332
5.46963772952
3.58704146055
3.68299823941
4.36372254526
11.840285981
10.2135903083
5.15821476113
5.13273058899
5.99598084989
6.95936041952
7.9312545194
8.77360969881
9.59315987214
11.3301502897
13.4591472274
15.121083408
15.4863877444
14.3238674232
13.4163675526
13.6934247173
14.2211879587
14.9291534643
15.8367140606
16.791813685
17.6963397845
18.4916693815
19.1308576391
19.8274282346
20.4419591007
21.2762897913
21.7825308945
22.4146376424
22.2846875284
21.8632948818
22.2892201586
22.1064404112
21.9394144986
22.0885870264
22.2319556404
22.4994402226
23.021289048
23.5772415445
23.937464965
24.0771918066
24.0395715255
23.8596288059
23.5594491677
23.148844467
22.6367045615
22.0102635927
21.2154251622
20.2178697605
19.0811752899
17.7385170563
16.0398885051
14.1106244803
12.1768135576
10.3496438637
8.71560309688
7.37695411251
6.4135123493
6.21807699139
7.40058996119
10.3989033436
15.9313823932
19.4573403292
19.6567423131
18.0189706983
15.6933283484
14.125069971
13.372775654
13.5645837223
14.969148439
14.9044485404
13.5806081026
13.4315777124
16.7069950753
13.1161865811
11.1395673674
5.59794293057
7.52106230509
4.30101218353
4.6184963376
6.50719988669
11.7299828702
8.13207107213
5.57100191052
5.65168004689
6.21995379632
7.10704337058
8.09534596064
9.51286690718
11.8530008821
12.8705405651
13.2272345452
13.1863884954
12.9082950026
12.9358229612
13.4706130274
13.8303121476
14.2593374678
15.0205945205
15.9448425202
16.9217637525
17.863695238
18.6203358347
19.4112150224
19.9478483138
20.8028719397
21.3136763286
22.5227690601
22.333962167
21.8661998965
22.0287556965
21.7109068089
21.7588850615
21.971916904
22.2174262573
22.4577197988
22.7647653146
23.2040093389
23.6701690674
24.0130675632
24.177440747
24.1715182359
24.0196055864
23.7435835753
23.3563513048
22.8605313896
22.2403539365
21.4639441539
20.5101890136
19.3674823601
17.9572515557
16.2309209902
14.3330765
12.474290947
10.7969664279
9.40916046052
8.4102565195
7.90589541438
8.11552296152
8.5521115891
10.5609572397
15.4219591566
19.5305002775
20.9593817092
19.8178608439
17.0794004986
14.6337651901
14.3351719164
16.5881122777
17.4538843036
16.411689055
15.4886302922
18.1258936242
21.1276447001
16.4514787972
15.568459807
9.90145462439
9.05774510575
5.35335560192
5.9457059278
12.0084622005
11.4706276911
6.43905345932
6.1453365494
6.26569892654
6.56834734207
7.36640317214
10.034869033
13.2911346131
13.7106532871
13.3298426023
12.3490642346
11.9123118642
12.2059554499
13.1245373284
13.4527900324
13.7068060506
14.3281982668
15.1709095312
16.1350530832
17.0366967512
17.9928368592
19.0456075376
19.5162869635
20.553327774
20.8444286519
22.3294523532
22.271743266
23.0948012031
22.1539832462
21.3648420041
21.392703956
21.7279485532
22.0833726244
22.398229199
22.6889148504
23.0162654345
23.4141569887
23.8237286608
24.1467892308
24.3235690862
24.342661679
24.21731633
23.9683885226
23.6107605004
23.1447078482
22.5535648425
21.809590597
20.8809718413
19.7231267869
18.2793035723
16.5727645036
14.7689145482
13.0676887944
11.6105787393
10.5046954603
9.81635866059
9.68442297291
10.3701090441
9.50584716418
12.3106439502
17.2888322561
20.8154642946
22.2217192078
21.3306572968
17.991547228
15.8295336554
17.6332623549
19.8330814756
19.3073579486
18.3041083718
18.3713226696
22.9106000157
24.4834890146
19.4919909049
19.2922267425
12.0094109535
8.86272853851
6.51118928723
6.10888619144
11.9357865804
8.2777651868
6.61304924369
6.72024803003
6.83415271037
7.51855953595
7.98130561743
13.0700467856
13.7250140166
13.7416677712
12.3362107508
11.2548330409
11.4782015856
12.7999856865
13.109214626
13.1402033176
13.7232957154
14.4459500717
15.2905345498
16.252732666
17.3673927838
18.4420213329
19.0689584808
20.4491979962
20.6150349115
22.2395061047
22.0240079244
23.0826185241
22.475584487
21.8957483964
21.1503293925
21.3176306252
21.796874696
22.2395442595
22.5975793502
22.9221267471
23.2678317785
23.6484741217
24.0258430988
24.3331651324
24.5166042634
24.5553682344
24.4562853444
24.2397308481
23.9213067217
23.4991673613
22.9533230152
22.2506022417
21.3467843759
20.1920806267
18.7657113609
17.1437031352
15.5033988831
14.0214371616
12.7951015453
11.8624600052
11.3136157555
11.1945499234
11.0373518369
11.0704018977
13.7286140882
19.867303834
22.2015342545
22.5639051149
21.5317392518
19.292100645
19.0489795437
21.6003792223
22.0354704922
21.1944910007
20.600845471
22.5510411734
25.2725231233
26.7165500794
22.1417035257
21.0044860013
11.699265221
8.45917015829
7.63361403408
12.0684184721
12.0123151997
7.21573609916
7.24515707399
7.37825227586
7.48748511548
8.04261606122
12.8413226752
13.7680242188
13.8226578655
13.303319083
11.1059200832
10.8048163524
12.3810231242
12.9594271092
12.7203389783
13.0131339444
13.7715337492
14.637746242
15.5074442364
16.5303841173
17.4685400887
18.8315484763
19.1779691383
20.4602836457
22.0000328292
22.3690892991
21.6901153305
22.509608843
22.5835851146
21.2536967411
21.1210524232
21.4584655501
21.9394662669
22.408479221
22.8059828503
23.1634575614
23.5283543344
23.9078807239
24.2706143051
24.5679679279
24.7557103317
24.8116893132
24.740872156
24.5638093483
24.2955805685
23.9312633148
23.4456594956
22.797581436
21.9360347408
20.8229376782
19.4781108391
18.0134785212
16.591780923
15.3181600144
14.1956725698
13.2560289977
12.6718794719
12.4742460073
12.5022105379
12.8728388362
13.0063624077
19.9202394375
23.9631294048
24.0027123403
23.4399976844
22.5177714192
23.355753394
24.7084802525
24.0222361055
23.3341903802
23.5343131676
25.8324837595
26.4803584603
27.0405319419
24.161782184
22.0260000528
10.9390154804
8.33157351557
8.29229673644
13.0306171362
10.9282331578
7.78483875041
7.92924913898
8.18998750178
9.44164195581
8.12654601478
13.6152326802
14.273032587
13.8516177038
12.0133911293
10.6880458219
10.9440372641
12.4723843237
12.6545910259
12.5993466983
13.0424972912
13.7764994846
14.7318891056
15.7119550539
17.1658862123
18.3963768617
18.7844212797
20.7437911925
20.3275714464
22.2269184592
21.7094221809
22.9804904578
21.7731012041
21.3212203901
21.1515989429
21.2886057191
21.6551386988
22.1164938055
22.5912738213
23.0237817264
23.4185769067
23.8065097593
24.1933818953
24.5537232237
24.8480738335
25.0402720579
25.1135810957
25.0755141177
24.9465103496
24.7397945783
24.4474296403
24.0390493708
23.466834098
22.6803921076
21.6633236995
20.4721421193
19.2287554344
18.0326596466
16.8578349118
15.6340987867
14.5605555157
14.0385442962
14.1554298509
14.5180805215
14.7527801691
14.6244867908
16.4782230725
24.0904585926
25.8012639677
25.8309598824
26.4871217716
27.5396338619
27.1785761728
26.15611324
25.9447419766
26.9122503914
28.0676707052
27.8806030875
27.2419813034
26.2114392004
24.8359923843
10.3525269183
8.72760056765
9.45016561423
13.0835701293
8.86973641569
8.79698360415
8.61923182622
8.87853247502
12.0615333947
10.7528234145
14.4488575647
14.5289566859
13.9037239871
11.2723061234
10.7013920839
12.3291396856
12.7149498648
12.395517912
12.5663493087
13.2056000182
13.9115994915
14.8116862814
15.6514647467
17.3358532068
19.4973587068
18.7211026001
20.6926332116
21.9271806924
22.4792973974
23.0111636624
22.133308912
22.0794555338
20.9978848671
21.0555088123
21.4540271545
21.8719623045
22.3192372815
22.7905532438
23.2501907524
23.6860756987
24.1060052597
24.5084752044
24.8738374749
25.171090175
25.3711607314
25.4639588815
25.4635497561
25.3918812033
25.2587718163
25.0531669897
24.7419844313
24.2749605076
23.6092497446
22.7543615957
21.7906938557
20.8068261991
19.7589552506
18.4527999895
16.9815844661
15.9627823734
15.8847094882
16.5201186886
17.0945523308
17.2651283993
17.0044263257
15.7700711593
15.9784761363
27.5054378246
30.3696410367
31.3672543239
31.1964252532
29.7409876313
28.7954587231
29.0521946404
30.1646904087
30.4487304418
30.14985541
29.8154488565
30.1329900304
30.3069038465
10.2732767962
9.53292884349
12.9061457724
13.2077296936
8.9158015989
9.53996119795
9.30164484176
9.81609450358
11.5146090169
14.289465691
15.2534350018
14.7749575162
14.116021552
11.2405934048
10.8480509692
12.8615785931
12.804630952
12.3615360299
12.594532686
13.3485059342
14.292842373
15.1735995186
15.8436789732
16.9618733376
19.6724775729
20.843650862
20.2714878582
22.0656495295
21.2389243659
23.0479174995
23.29211193
22.0130903837
20.9547939285
21.1669729002
21.6515891034
22.1001432271
22.5461583955
23.0138903846
23.4885091933
23.9635416015
24.425836703
24.8541404961
25.2313667061
25.536441748
25.7485231534
25.8658631889
25.9095210296
25.9030695319
25.8540986973
25.7501567975
25.5586996128
25.2328077743
24.7444649999
24.1282744322
23.4588377301
22.7080400157
21.5772078511
19.9272391498
18.5112305035
18.0408351409
18.7562345706
19.9420979044
20.6499517387
20.7315773795
20.1284135968
18.620618552
16.3886169145
17.5198598071
31.7745506835
37.0131747827
35.6335446758
33.1507200454
32.2677638523
32.7068098193
33.4375020262
33.7009412243
33.9270411957
34.378845749
34.9581160758
35.614931429
10.5756959484
10.3774351741
14.5327052278
13.8717293573
11.9149132077
10.744110322
10.2037756878
11.2836470849
10.9327175018
15.2464143549
15.877446753
15.0916080117
14.1633620696
11.8226761139
11.610730859
13.33361327
12.8121317796
12.4361873941
12.7143023634
13.3959411945
14.4502572499
15.6350500748
17.3547929399
17.108806876
19.1628951492
21.2314238777
20.1383180776
22.3469182127
23.1012661275
22.1545101102
22.3026789908
21.2690205506
21.2553359883
21.5003157852
21.9065144312
22.3535940602
22.8036852605
23.2715259697
23.7472152175
24.2456718286
24.7582904027
25.2320317984
25.6295025447
25.9445447367
26.173258054
26.3222212024
26.4169785018
26.4818813373
26.524228155
26.5337270928
26.4828876847
26.33847277
26.0970813864
25.801483971
25.4497739806
24.748900965
23.2308478181
21.5319365233
20.8385177013
21.3522239438
23.061728414
24.6781780065
25.4688307301
25.597779898
24.8535469812
22.9975190925
20.1085284333
16.3614772235
26.9073198613
37.7252852856
40.61410424
37.754321165
36.911380831
37.263143849
37.802651419
38.0735395684
38.9002876975
39.6023739765
39.5481253239
39.7532186704
11.1438154604
11.0087531896
14.2502916513
14.3276992302
14.3263873714
11.8460021935
11.2387073654
14.1790300988
11.2594755616
16.1016960857
16.3524203234
15.4193958593
14.2148885126
12.4053631125
14.3033118007
14.3975050847
12.9797693115
12.6466601795
12.9666552211
13.5451405376
14.415703173
15.6215074752
18.6827438204
19.6238737392
18.6236311988
21.3123298543
22.2078235969
21.9015822507
23.0739353805
23.3558514311
22.6830462495
21.2934921775
21.4618318551
21.8365256626
22.2166945097
22.6388289094
23.0774345607
23.5607855644
24.0575491441
24.5580705802
25.0966933777
25.625126961
26.0656609754
26.3996916244
26.6480062626
26.8354023706
26.9886623216
27.1283619775
27.2626063141
27.3880736374
27.4921732533
27.5727909625
27.6567051316
27.7465576995
27.6246594196
26.6300373712
24.8190570235
24.1435548797
25.2556415689
27.1396229194
29.7453875291
31.4545824438
31.764544272
31.6752314046
30.1395502085
27.6089442415
24.3103935446
18.3558277649
19.8650934928
33.3243751801
40.4513954781
41.5971290918
40.1474147156
41.1437278195
42.101715503
43.3560039604
44.5337882443
45.0659907437
45.05457056
45.2448581341
11.7718238075
11.6867569326
11.3455042893
14.6328031378
14.8333559787
12.5798215433
12.1736501374
15.1380456267
11.8795309977
16.9783257059
16.7768638799
15.7606889422
14.3806596229
12.6957231856
15.469032075
14.9324001274
13.3839450075
13.0290230649
13.3135034077
13.8641794181
14.5067248677
15.5221925624
19.2166630902
20.6940930565
18.9658212755
21.3729868854
22.7406886348
21.3330550493
22.7089607647
22.8751762602
21.5460709812
21.6505338545
21.9162665429
22.2226637699
22.5582787006
22.9788526138
23.4091438545
23.8575138672
24.3791487749
24.9222173732
25.4761931808
26.0356888055
26.5245906729
26.8961389766
27.1756364431
27.4094171515
27.6262692263
27.8372344382
28.0545101671
28.286290797
28.5423673227
28.8893386204
29.3783380055
29.8780362658
29.6876357306
28.1305962192
27.0948748551
26.2614994185
25.1942888905
25.2883354001
25.2150177815
22.230219932
15.5942554059
10.5612324278
3.62273172815
1.02045043652
9.02121117743
17.2246389428
22.0979407624
21.944621049
44.2625801148
48.4436241116
47.8415258061
43.4754049405
40.796541953
44.4028277466
49.309597573
50.4518682087
51.8341291908
52.3586046436
12.5788577537
12.6654003203
15.260905157
15.2492444105
15.2520580113
13.2017770152
13.1981484211
15.9513118556
12.8687884134
17.7312964235
17.1781314635
16.1228894198
14.6257926055
13.0709026768
15.7339059076
15.0903555299
13.7879360237
13.4666547743
13.6902108655
14.1769390337
14.763468875
15.5600648486
18.5897692241
21.5107440946
21.6351066811
20.7115117299
22.9602097992
23.6954678204
21.4447578849
21.2260629759
21.4800503698
21.8878136595
22.2682051077
22.6063192814
22.9601474945
23.3421372988
23.7697784419
24.2326001659
24.724474775
25.2978193513
25.8998598366
26.4881868804
27.0102440176
27.4231253831
27.7518047513
28.0441245953
28.3278407459
28.6094917435
28.8873088328
29.1763462585
29.5618642159
30.2049401305
31.1500924259
31.9330477245
31.1976732826
28.5124501981
21.334770951
0.151733434171
0.000166891042812
3.12861044127e-06
5.30320909722e-08
1.53434997096e-10
4.36028768783e-13
7.54757545882e-18
5.90373591703e-18
1.43329132185e-17
9.66151671439e-17
4.5254004881e-16
1.67168519924e-15
1.06232981982e-14
8.31780534497e-15
7.21614836745e-13
4.10719416515e-10
4.12860653809e-08
3.13291493507e-06
0.00072143460568
12.1440146004
54.2405607726
58.0509479865
59.7111775083
13.3337987672
13.5232440944
16.8627030375
15.8821428839
15.3149500824
13.834322649
14.1957918529
16.6260809375
16.6002641862
18.6615115377
17.635178309
16.5739200329
14.9497664811
13.5929103447
16.0147631005
15.191817856
14.1820338781
13.9141148387
14.0689900165
14.4773176951
15.0368102051
15.8174014578
18.0446873479
21.7748076322
23.0218454272
20.3822257814
22.5011598405
23.7405201977
23.3691246677
21.7097316965
21.5852326537
22.1184486325
22.6323815467
23.0450549774
23.3442954974
23.733843988
24.1487225749
24.626424181
25.1324365125
25.7062657254
26.3503662201
26.9868501985
27.5322145033
27.9667161092
28.3535503371
28.7572514367
29.1477901961
29.469107255
29.6986646091
29.9804980455
30.4957432141
31.3937848172
32.7500996012
33.5955491394
27.9773788457
0.224563884687
8.3907173753e-08
3.39783561389e-10
9.82599055999e-12
1.43048410722e-13
1.16223810811e-16
1.93930566246e-19
1.36702546158e-20
0
0
0
0
0
0
0
0
1.90129929124e-24
6.41268889519e-22
9.59201573153e-20
5.56498035164e-17
7.77291181111e-14
4.20923040628e-09
6.39222450894e-05
32.4588535946
62.1292657755
13.949359806
14.1610739008
19.033212586
16.3636884379
15.1178375294
14.3978765067
14.907632821
16.6359778127
18.1875986354
19.7358001171
18.247743003
17.156452217
15.5215003803
14.4133118468
16.502881752
15.4499650368
14.6587649255
14.4137033401
14.4878592748
14.8140380674
15.3053652566
16.0304183175
17.8222160666
21.6510670548
24.018423769
23.1854894625
21.9664329773
23.1055597663
23.0714157429
21.6293095666
22.0469282585
22.615916093
23.180969064
23.5386588888
23.8535609997
24.1593456113
24.587875262
25.0475528696
25.5765509637
26.1658921237
26.8232571448
27.5091938089
28.1298192895
28.5876364196
29.0191819537
29.5383455142
30.0474687486
30.3699313569
30.5051988128
30.7409776983
31.3139566912
32.267958566
33.6652086668
28.431609468
0.000555642608896
1.21478353074e-10
3.9839610539e-14
1.61094931085e-15
2.19648089042e-17
6.02334754168e-20
0
0
0
0
0
0
0
0
0
0
0
0
0
2.44982391959e-23
2.43443284324e-22
5.33680425809e-21
2.58774258726e-19
1.43703283785e-15
1.1961338368e-06
2.30574104218e-11
14.4293846288
14.629630316
21.1093735964
16.7285002851
15.191822244
14.9255628551
15.709986998
15.927029838
19.1395838721
20.5033183561
18.8454644409
17.7555580848
16.2976307082
16.3359695184
17.1855854463
15.9522496149
15.3339288037
15.1138925397
15.0153675211
15.238564409
15.6271805824
16.2775002268
17.7967892705
21.5188684034
24.4339658549
24.8462054041
21.6429411086
21.9396473942
21.6933641524
21.7544963718
22.3513517484
23.1278083793
23.6892128572
24.0704119044
24.3991826249
24.7929880278
25.0908029028
25.537744215
26.0609653612
26.6457321419
27.3689697247
28.1159821599
28.774482141
29.1918048482
29.6247815915
30.8427700052
32.5332427384
33.0356384665
31.9809066163
31.8781957103
32.3278191822
33.2221020506
27.0313552603
6.42841717644e-05
9.68846677447e-10
4.3463985251e-21
4.39208955378e-18
7.16667976794e-20
0
0
0
0
0
0
0
0
0
0
0
0
0
0
0
0
0
0
3.78490115014e-22
2.5630725438e-21
4.72651827269e-19
94.1235745777
14.8564976982
15.0230199735
20.9198409259
16.1004872248
15.3658242196
15.3821672163
16.6237604745
15.8822746536
19.9406053206
21.2234693666
19.4197424547
18.3160035962
16.8962624578
18.602918683
18.1472762184
16.6604847021
16.1138252361
16.1927951326
15.7669664693
15.8332338105
16.0490864287
16.5618372691
17.9159745078
21.3722797481
24.3056798934
25.9600480231
24.4910490532
23.3952424336
22.788845682
22.0371043327
22.6696606136
23.8050324035
24.1310678844
24.5987814457
25.2230661488
25.3952999174
25.6927385432
26.1380762614
26.6709052731
27.2514159114
27.9067719975
28.7001031409
29.4977921657
30.3682873993
31.4671203596
33.0816005064
34.3395876644
34.1709918349
33.9485048545
34.3988934857
35.2478009974
31.4710962716
0.000292339330035
2.66847430159e-09
3.50723573635e-13
4.76349836847e-15
0
0
0
0
0
0
0
0
0
0
0
0
0
0
0
0
0
0
0
0
0
0
1.16460798234e-21
8.47664138163e-11
15.3600032154
15.5050501893
20.5298361953
15.7269643512
15.6480764391
15.753709504
17.4061286126
16.3274750326
20.6284470067
21.9312352249
19.9957066036
18.8864016979
17.4035443564
19.3363864142
19.0389358103
17.4441463568
16.8817384073
17.0772402484
16.6706409056
16.6518575563
16.6767508712
16.8884387072
18.1968461596
21.3541871934
24.0320041738
26.3027004914
25.7110326168
23.8749700059
22.0859696931
22.5659433066
23.2278701453
24.3212960428
25.0600424015
25.6397115143
26.0733500427
26.0993967323
26.3765813833
26.837172176
27.3776407911
27.9840622955
28.6375237873
29.5054452502
30.6644568545
32.2407896283
33.273577884
33.535625827
34.1202428222
34.5316853198
36.2931166655
38.3980946505
37.8613946298
0.00266377979798
3.53699103223e-09
6.09935969424e-13
1.25101008341e-15
3.02893605706e-17
1.01671102041e-19
0
0
0
0
0
0
0
0
0
0
0
0
0
0
0
0
0
0
0
0
0
1.95716288343e-22
2.58950525797e-22
16.1135855233
16.2595206044
20.1633593608
15.9917472764
16.2079237364
16.2288319435
17.3749174576
17.0549376388
21.1137586687
22.6039172934
20.6102583722
19.5118573045
18.0390668047
20.0108783417
19.8493336157
18.3293903255
17.7172999609
17.9436019367
17.5503155344
17.6190835747
17.5892848042
17.3789408284
18.6738686353
21.5217089986
23.9073993432
26.4057337768
26.2534446003
24.5506820983
22.5504272907
22.7970218891
23.9006801076
24.4438912891
25.0366439106
25.8456723949
27.0284678382
27.1505723258
27.3378026106
27.6390382438
28.1359737579
28.822251245
29.5892919819
30.5891642801
32.5676912932
34.3667383349
34.4601570621
34.5070529725
35.5611654744
38.7948641785
42.993142712
42.1314347613
0.000761050184309
1.26423797852e-10
5.23171239259e-15
1.71530679535e-18
1.0762630246e-20
2.18149793023e-20
3.34996679092e-21
0
0
0
0
0
0
0
0
0
0
0
0
0
0
0
0
0
0
0
0
0
1.44659652628e-23
6.56856976004e-23
17.2546418295
17.3570122776
20.4183748308
16.9328124452
17.384965146
17.0827391931
17.6516419273
18.4032060398
21.1211123191
23.1006301599
21.2932650456
20.2140319874
18.787432691
20.7786709616
20.6896765349
19.384699514
18.7476102049
18.9650385321
18.4375912209
18.6883918049
18.8286601492
18.1086717739
19.2136439661
21.8740492433
23.9709512771
26.2626802362
26.4988670776
25.1641399471
24.6670284401
23.6881239422
24.3416299294
25.3534661124
26.5749992555
26.4429849799
27.2239356725
28.2225825534
28.4003457262
28.7930177715
29.1715565851
29.7483263544
30.6623049413
32.614759841
35.4110145916
36.2402089956
35.8653918841
36.9374615024
41.5213066058
48.4743632325
48.2500347213
2.73751050446e-05
1.91538878084e-12
1.7882765949e-17
1.22359779709e-19
0
0
0
0
0
0
0
0
0
0
0
0
0
0
0
0
0
0
0
0
0
0
0
0
0
0
0
18.8552802187
18.7128898423
21.2049761277
18.8560443327
19.3794018403
18.3547875082
18.5847070589
20.36444598
21.3102977774
23.7091513974
22.1001712723
21.0039725537
19.6253090393
21.584469533
21.5255392062
20.5514916776
20.2764400176
20.3080332381
19.417107859
19.8607191405
20.3811477446
19.1705235915
19.6287542374
22.3095626725
24.2288994083
26.1286937657
26.6857600848
25.3030799992
25.8688788791
25.315827937
25.4608079566
25.0208589147
26.215388002
27.7614956179
28.2041869507
28.9286262723
29.4666803413
29.8779416403
30.4284159894
31.0261013588
32.5079104665
35.8535081424
38.1632517927
38.401114598
38.9991715412
42.8920945104
50.8621786867
50.9062942249
3.88309925179e-07
1.70932613144e-14
2.98826285903e-17
1.36828746182e-19
0
0
0
0
0
0
0
0
0
0
0
0
0
0
0
0
0
0
0
0
0
0
0
0
0
0
0
0
20.5571388227
19.9906933182
22.0694480669
21.4208049114
21.1161300243
19.8415707285
19.6233942266
21.5157713795
20.4860312192
24.1806914173
23.0136245986
21.874268846
20.5442179521
22.4058087154
22.3035669058
21.5258170251
22.4231969094
21.9340711361
20.5260741301
21.168257629
21.7528006928
20.5475601406
19.767195729
22.3061376508
24.4171181984
26.033963122
26.7618502515
25.3954808416
26.2558232702
26.628820692
26.8187854227
25.8134242891
26.5190345948
27.655233252
29.1651359639
30.1844598073
30.7733108517
31.1434866187
31.6647500885
32.7864391202
35.885109895
39.4673814372
41.1492794786
41.9617653736
44.5710874038
50.5071569839
47.956346723
0.313155910049
4.60250867808e-14
6.66310235307e-17
2.33354698649e-19
0
0
0
0
0
0
0
0
0
0
0
0
0
0
0
0
0
0
0
0
0
0
0
0
0
0
0
0
0
21.4072739638
20.8994911201
22.6300821704
22.4894702105
22.2042165198
21.2602475498
20.8398792527
22.9212117705
21.5434783554
24.7878499046
23.938213946
22.7929261088
21.5392585963
23.2615629208
23.0992047421
22.3483400605
23.4062106255
23.0553182686
21.6181439481
22.4702841547
22.5064370106
21.3727520938
20.8403494161
21.0562617637
23.940924099
25.5634858795
26.5729926337
25.3938361524
26.3460542425
27.1897083119
27.930064045
27.7106097244
26.8327406029
27.7282870097
29.429052793
31.0922180049
32.1986657429
32.8468848523
33.3860087157
35.939923841
40.0361088723
43.1146962198
44.5187900041
46.2033336326
50.2119654912
44.1052030468
13.1192086982
2.43143840195e-13
2.19024042496e-16
6.23791812112e-19
0
0
0
0
0
0
0
0
0
0
0
0
0
0
0
0
0
0
0
0
0
0
0
0
0
0
0
0
0
0
21.5257979905
21.492362489
22.9927480437
22.7356007893
22.9151462611
22.375530952
21.9112303435
24.305055609
23.266886528
25.577145117
24.9250570469
23.7469227871
22.6054465763
24.1668439634
23.9694045058
23.3092279924
24.228455079
24.0410320141
22.7736768703
23.5191089126
22.2782155985
22.1488119698
21.9107379813
22.1883985197
23.0390303841
24.0216906302
25.7708496649
25.2445249329
25.9224715663
27.251727828
28.41912139
29.1062709424
28.417613738
28.5516230194
29.6334520755
31.2620405339
33.1100600809
34.6292536381
36.0939817113
39.9835245847
44.0388041495
46.4832464196
47.4268445234
48.8233718444
42.6379232417
19.8142488041
1.649108952e-12
7.60792214102e-16
1.70424572847e-18
0
0
0
0
0
0
0
0
0
0
0
0
0
0
0
0
0
0
0
0
0
0
0
0
0
0
0
0
0
0
0
21.8202933432
21.931790384
23.3244572455
21.8733507107
23.2435109924
23.0119189982
22.6507097049
24.949990041
24.1544300079
26.3964193721
25.9578223686
24.7090569163
23.7505890526
25.1090729578
24.8866462199
24.4074318445
25.1365538738
25.137144684
24.050936167
24.9482960595
23.6523014661
23.826392977
23.1901619235
23.4955222205
24.8925627501
25.5140786986
25.4472218003
25.032406248
25.4812325901
27.2380531294
28.468437135
29.3991954836
29.8458352186
29.6923487645
31.0727354254
32.0547360266
33.875703464
36.3194141756
39.4997827303
44.1252708249
47.6584473648
49.1259099614
47.9550721957
43.1184391624
35.7356813383
12.489631877
6.38400689086e-15
1.45335040742e-17
0
0
0
0
0
0
0
0
0
0
0
0
0
0
0
0
0
0
0
0
0
0
0
0
0
0
0
0
0
0
0
0
22.5766265618
22.6531556394
23.6798832539
22.3337415159
23.539285755
23.3861444185
23.1902806591
25.1945518716
24.7932264793
27.0183404221
26.976717933
25.6215487047
24.9622783861
26.0448267966
25.7723430288
25.476146286
26.0139490863
26.3203329886
25.3741521661
26.3844893023
25.4497165923
25.9269136418
25.6697277064
24.4831894436
25.6394618408
26.6307902931
26.7422349532
24.9281355725
24.9746408839
27.1866329327
28.6636852392
29.0844330926
29.6830329118
30.087127753
31.4490157697
32.7319745608
34.7775264185
38.069624793
43.0834007497
48.2595487567
50.9620517538
50.5977117288
46.4823217318
38.1125007275
21.5588071531
7.25866214169e-14
1.01275169914e-16
4.10673065623e-19
0
0
0
0
0
0
0
0
0
0
0
0
0
0
0
0
0
0
0
0
0
0
0
0
0
0
0
0
0
0
0
0
23.524930611
24.5567971937
24.1908895838
23.3555508464
24.1224656653
23.8228580477
23.71478793
25.4140570942
25.3811362911
27.2985737877
27.969263523
26.4465744726
26.0440199896
26.8210962758
26.6178580704
26.2960864089
26.3406519459
27.4029975626
26.7666107672
27.643295803
27.431382329
27.2804530884
27.1101630915
26.71230066
25.9921179845
26.7786917517
27.7371951805
24.4889903724
24.5455156744
26.5529977752
28.7592648107
29.7150702152
30.5106143152
30.1940653278
31.388895545
33.0581857305
35.3506874116
39.7076657712
46.6062604463
52.1477039397
53.6018771038
48.5227556144
44.9855597372
39.9649524398
15.7467827426
6.86452288533e-16
1.75199135035e-18
0
0
0
0
0
0
0
0
0
0
0
0
0
0
0
0
0
0
0
0
0
0
0
0
0
0
0
0
0
0
0
0
0
24.2583851365
25.3244982443
24.9461174401
24.2863785766
24.8686955471
24.439480063
24.3094589717
25.717365782
25.9545910532
27.3200865159
28.8598123724
27.2447503422
26.7183197622
27.4725463431
27.5364360033
27.0477334397
26.6149263361
28.1844105294
28.198080152
28.7464498773
28.7930266765
28.9250941009
27.7023242564
27.6803230992
27.2174883421
28.4416004155
29.1217806124
26.3906605299
24.2157685255
25.6321957088
28.1578872163
29.9754963734
30.8165362628
30.8567684047
31.1589213598
32.9875248436
35.4063436201
40.998855323
49.926623481
56.0273503517
54.2909711673
47.3625468436
39.4671570806
27.4953290317
2.353565653e-14