/*--------------------------------*- C++ -*----------------------------------*\
| =========                 |                                                 |
| \\      /  F ield         | OpenFOAM: The Open Source CFD Toolbox           |
|  \\    /   O peration     | Version:  v1806                                 |
|   \\  /    A nd           | Web:      www.OpenFOAM.com                      |
|    \\/     M anipulation  |                                                 |
\*---------------------------------------------------------------------------*/
FoamFile
{
    version     2.0;
    format      ascii;
    class       volScalarField;
    location    "1000";
    object      p;
}
// * * * * * * * * * * * * * * * * * * * * * * * * * * * * * * * * * * * * * //

dimensions      [0 2 -2 0 0 0 0];


internalField   nonuniform List<scalar> 
6400
(
0.143402166268
0.143405424157
0.143414788542
0.143433279909
0.143461192476
0.143498630848
0.143545558895
0.14360299762
0.143672300744
0.143755640333
0.143859025923
0.143985730451
0.144133672439
0.144302788589
0.144494910303
0.144712641573
0.144957999866
0.145231323621
0.14553063475
0.145851022534
0.146187950221
0.146543503275
0.146925157884
0.147340439888
0.147793830655
0.14828526805
0.14881172888
0.149370795694
0.149961908682
0.150585434368
0.15124150983
0.151928148346
0.152639946739
0.153371338239
0.15411949415
0.154882237136
0.15566001878
0.156456967501
0.157271388136
0.158095858248
0.158930368901
0.159783507209
0.160659062336
0.161549530372
0.162444324132
0.163335316364
0.164216106777
0.165081349991
0.165926059273
0.166745690668
0.167536130768
0.16829152171
0.169002959799
0.169660493338
0.170260755549
0.17080490167
0.171288347336
0.17170334861
0.172048074406
0.172327950718
0.172548814695
0.172714965222
0.172832551164
0.172916665093
0.17298749234
0.173060437582
0.173135996536
0.173200001686
0.17324447849
0.173272213424
0.173288133018
0.173296122682
0.173298559814
0.173297054749
0.173292677596
0.173286740394
0.17328016453
0.173275068271
0.17327135748
0.173269718529
0.143397534137
0.143401023572
0.143409628038
0.143427670435
0.14345691101
0.1434956474
0.143542995758
0.14359881255
0.143666214139
0.143749265136
0.143852322213
0.143978171008
0.144126385662
0.144296320449
0.144488537372
0.144705036593
0.144949653184
0.145223507997
0.145523842235
0.145844517208
0.146179784527
0.146533654433
0.146914953396
0.147330447366
0.147784346819
0.148276458219
0.148803308756
0.149362980465
0.149954952435
0.150579172166
0.151235488133
0.151922619447
0.152635279299
0.153366895779
0.154115224854
0.154878342337
0.155656361059
0.156453989612
0.15726965726
0.15809536359
0.158930332418
0.159784576684
0.160662741123
0.161555294366
0.162451424424
0.163343881803
0.164226272681
0.165093368122
0.165939901868
0.166760530473
0.167551088712
0.168307689381
0.169022320067
0.169681730755
0.17028350295
0.170829491375
0.171312067359
0.171725132306
0.17206914569
0.172347885192
0.172566426414
0.172731163761
0.172848418237
0.172933156273
0.17300477322
0.173077878269
0.173153025513
0.173214534247
0.173256111219
0.173281552989
0.173295578171
0.173301965896
0.173302850035
0.173299646196
0.173293933058
0.173286958403
0.173279960586
0.173274258974
0.173270245317
0.173268802263
0.143384342116
0.143390014229
0.143397992738
0.143414678598
0.143442949961
0.143485613433
0.143536285315
0.143590567061
0.143655056462
0.143736471042
0.143838737051
0.143964128173
0.14411265919
0.144283365759
0.144475607
0.144689158885
0.144931574848
0.145208972701
0.145511682013
0.145830999705
0.146162792416
0.14651270402
0.146893514629
0.14731104729
0.147765953086
0.148258258159
0.148786257117
0.149347566335
0.149941025866
0.150566493899
0.151223707812
0.151911953926
0.152626401709
0.153358145652
0.154105930251
0.154870483829
0.155649365169
0.156447320649
0.157264707119
0.158093735776
0.158934007841
0.159792590244
0.160672158626
0.161565879755
0.16246418473
0.163359352494
0.164245008563
0.165115569288
0.165965684168
0.166790264746
0.167584731398
0.168343651736
0.169058652533
0.169721252111
0.170328403794
0.170876161414
0.171357568576
0.17176911614
0.172111419695
0.172387850297
0.172603746688
0.172765244569
0.17288118015
0.172968175306
0.173044235722
0.173118611885
0.173188102206
0.173242948935
0.173279805781
0.173301262845
0.173311690278
0.173314341567
0.173311358103
0.173304764307
0.17329651417
0.173287690769
0.173279386222
0.173272592292
0.173268081573
0.173266294399
0.143364989627
0.143370908537
0.143378061543
0.143393574343
0.143418656722
0.143461328601
0.143523850962
0.143578463821
0.143638512541
0.14371708345
0.14381799922
0.14394314601
0.144092378234
0.144263275146
0.144455345086
0.1446719551
0.144917359454
0.145192125886
0.145487519371
0.145797754108
0.146126602332
0.146479763177
0.14686296041
0.147281447112
0.147737562319
0.148231305339
0.14876106672
0.149324445208
0.149920052069
0.150547329965
0.151206429899
0.151896269875
0.152612381874
0.153346522115
0.154093149466
0.154856515838
0.15563854708
0.156438277493
0.157256348096
0.158089900143
0.158937522752
0.159802355178
0.160685631691
0.161582262931
0.162484095736
0.163383503089
0.164273921145
0.165149534048
0.166004899356
0.166834833215
0.167634226406
0.168397094165
0.169115934496
0.169783633184
0.170395118169
0.170944603227
0.171425950042
0.17183624141
0.172176231462
0.172449360337
0.172661237112
0.172819727295
0.17293725953
0.173029981151
0.173109120466
0.173179433705
0.173242160202
0.173289497035
0.17331860595
0.173332867223
0.173336489362
0.173332452664
0.173323548347
0.173312218325
0.173299945897
0.173288341864
0.173278171992
0.173269123062
0.173262613478
0.173259841395
0.143334424271
0.143336222309
0.143344972568
0.143361060516
0.143388919125
0.143429566293
0.14348774484
0.143546679959
0.143610172044
0.143689210464
0.143789054542
0.143914154268
0.144064648839
0.144240279074
0.144438573513
0.144655442489
0.144894358424
0.145157657585
0.145443911696
0.145751896296
0.146082073939
0.14643692145
0.146821944772
0.1472422378
0.147700043518
0.148195630541
0.148727410366
0.149293402181
0.149891824524
0.150521926457
0.151183139174
0.151876010219
0.152595451006
0.153328866383
0.154075318744
0.154838784947
0.155621095998
0.156424076268
0.157246745791
0.158086456334
0.15894184952
0.159814002289
0.160702879735
0.16160429632
0.162511261449
0.163416455351
0.164313194529
0.165195464631
0.166057695714
0.166894537312
0.167700510541
0.168469415441
0.169194215391
0.169868005987
0.170484367194
0.17103649091
0.171518532452
0.171927939427
0.172265626516
0.172535415842
0.172744062161
0.172901897328
0.173023173985
0.173120376929
0.173198093623
0.173263838624
0.173319015453
0.173356381833
0.173374119499
0.173376748924
0.173369363701
0.17335579721
0.173339221681
0.173321293816
0.17330380998
0.173288237936
0.173274110717
0.173260490875
0.173251232315
0.173247582097
0.143279689161
0.143280504779
0.143294155725
0.143311223121
0.1433423465
0.143385482205
0.143440625082
0.143500478504
0.143568965509
0.143650431447
0.143749184372
0.143874869185
0.14403333203
0.144216918991
0.144414509714
0.144625682416
0.14485575178
0.145111025173
0.145392856287
0.145698969381
0.146028006107
0.146383582414
0.146770678065
0.147193360764
0.147653457915
0.148150922917
0.148685339694
0.149254236317
0.149856439295
0.150490182338
0.151155280842
0.151850285099
0.152570355173
0.153306915588
0.15405228606
0.154814330684
0.155599193054
0.15640713993
0.157235959021
0.158083054719
0.158946946502
0.159827499599
0.160723751983
0.161631906302
0.162545783179
0.16345842592
0.164363123594
0.165253711218
0.166124482692
0.166969921094
0.167784309679
0.168561337097
0.169294054008
0.169975232884
0.170597466095
0.171153410408
0.171637444766
0.172047274069
0.172384073995
0.172652407765
0.172860490925
0.173020411304
0.173145962419
0.173242875954
0.173317154709
0.173376954892
0.173423445628
0.173448106753
0.173449700059
0.173434746143
0.173411533519
0.173385196442
0.173357942138
0.173331277711
0.173307252615
0.173285867629
0.173265264959
0.173245660293
0.173232939212
0.173227220963
0.143196699965
0.143203543414
0.143224995218
0.143249629214
0.143277679998
0.143321925578
0.143378979623
0.14344171801
0.143514125596
0.143598743816
0.143701648438
0.143831396857
0.143997117106
0.144180024449
0.144373516265
0.144577628777
0.144802193017
0.145055098921
0.145334881846
0.145636861816
0.145963889009
0.146320474549
0.146709529211
0.14713435596
0.147597180725
0.148098329002
0.148634511948
0.149206762282
0.149813565717
0.150453538307
0.151122580829
0.151818484606
0.152539778081
0.15327442282
0.154020655539
0.154784905369
0.155574022266
0.156387999049
0.15722407319
0.158079555648
0.158952798661
0.159842900228
0.160748218874
0.161665056585
0.16258773731
0.163509621419
0.164424032656
0.165324711264
0.166205834326
0.167061742521
0.167886547374
0.168673797525
0.1694163623
0.170106526843
0.170736247082
0.171298025847
0.171786544619
0.172199784209
0.17253917736
0.172809825255
0.17302074695
0.173184180171
0.173310539489
0.173404805156
0.173477966763
0.17353069973
0.173561796068
0.173567144124
0.173546616941
0.173508314726
0.173463727273
0.173419542441
0.173377602428
0.173340790692
0.17330906783
0.17327947616
0.173249745296
0.173223143408
0.173205906556
0.173197526385
0.143097892775
0.143110543667
0.143134883148
0.143169178107
0.143200366981
0.143247065343
0.143303121799
0.14336935108
0.143446722718
0.143530202838
0.143641649046
0.143783720369
0.143948287731
0.144128147043
0.144315852295
0.144513924666
0.144737715653
0.144990916599
0.14526663344
0.145564542865
0.145890065868
0.146247247521
0.146638101963
0.147065979495
0.147532378134
0.148036847784
0.148576917945
0.149150327575
0.149763541525
0.150411850525
0.151083489629
0.151778414203
0.152499070854
0.153233549856
0.153980999639
0.154750574295
0.155545948277
0.156366870352
0.157211024777
0.15807581947
0.158959381359
0.159860260193
0.160776307138
0.161703763659
0.162637220261
0.163570272346
0.164496309982
0.165409027828
0.166302508853
0.167170965048
0.168008349069
0.168808017075
0.16956254429
0.170263806969
0.170903535264
0.171474509243
0.171971901385
0.172393770308
0.172741002656
0.173018146258
0.173233537421
0.173398601965
0.17352294812
0.173615055042
0.173682676302
0.173729144563
0.173739637862
0.173718989173
0.173670428699
0.173600995575
0.173525409111
0.173454758818
0.173394712935
0.173347453603
0.173307709247
0.173268027386
0.173227007749
0.173191587022
0.173168630053
0.173157747609
0.142988168348
0.143004134811
0.143029047787
0.143059798125
0.143098434563
0.14315355674
0.143210941543
0.143279632781
0.143365491782
0.143454940124
0.14356554157
0.143716318065
0.143884029207
0.144059258517
0.144241961917
0.144440174812
0.144663786349
0.144914560648
0.145186552875
0.145482293664
0.145806927103
0.146164112208
0.146555545831
0.146985784913
0.147459049029
0.147966152399
0.148510587482
0.149090972134
0.149706667331
0.150357422836
0.151034721773
0.151734798579
0.152449445657
0.153182230918
0.153935128775
0.154711893793
0.155514756669
0.156343606745
0.157196701574
0.158071728525
0.158966662591
0.159879625548
0.160808062698
0.161748077
0.162694359132
0.163640654015
0.164580430222
0.165507369758
0.166415468257
0.16729880034
0.168151150206
0.168965665001
0.169734672113
0.170449915317
0.171103432624
0.171688785938
0.172201721123
0.172639446428
0.173000387588
0.173287712084
0.173508318556
0.173674328842
0.173795317851
0.17387890083
0.173931252083
0.173964031269
0.173963774358
0.1739142968
0.173831704979
0.173718200299
0.17359274745
0.173483210691
0.173402850572
0.173347774924
0.173303071984
0.173252938593
0.173196546517
0.173149075738
0.173117848274
0.173103839183
0.142865611918
0.142883568729
0.142912503439
0.14294254278
0.142984444303
0.143040373258
0.143100800166
0.143170431487
0.143257878823
0.143364028421
0.143480352873
0.143632203387
0.143801487001
0.143974252106
0.144152487904
0.144353695826
0.144580557974
0.144827399874
0.145094938418
0.145388910337
0.145713728405
0.146072087852
0.146464594528
0.146894684792
0.147374152681
0.147889321864
0.148432948928
0.149019499007
0.149640665739
0.150295933011
0.150977231217
0.151677394266
0.152392826807
0.153125667982
0.153883846534
0.154668688392
0.155480174823
0.156318009214
0.157180976068
0.158067173219
0.158974581497
0.159901006319
0.160843529546
0.161798065469
0.16275930991
0.163721097171
0.164676970278
0.165620610389
0.166545911691
0.167446780847
0.168316823245
0.169149029219
0.16993567485
0.170668816464
0.171341423826
0.171948332303
0.172485583619
0.172947638802
0.17332826721
0.173631995727
0.173861801858
0.17403077584
0.174144632715
0.174208338184
0.174230572725
0.174227517503
0.174207717827
0.174165981736
0.174049813466
0.173866842543
0.173655815153
0.17348991945
0.173389350066
0.173336796965
0.173299392233
0.173239963494
0.173156427411
0.173089542159
0.173044297009
0.173025068342
0.142724883242
0.142742001848
0.142773685039
0.142808878173
0.142859211752
0.142911014982
0.142972973853
0.143045774687
0.143127182201
0.143243153697
0.143373922483
0.143527404354
0.143697878274
0.143872376727
0.144050880456
0.144253627166
0.144482502647
0.144727320021
0.144991774853
0.145283297268
0.145607741406
0.14596869688
0.14636666927
0.146797771079
0.147274659202
0.147801201467
0.148353157881
0.148940864585
0.149564731564
0.150218120647
0.150905970373
0.151610375769
0.152326478334
0.153063034643
0.1538278075
0.154621132859
0.155442019149
0.156289865775
0.157163717797
0.158062065201
0.158983070542
0.159924375383
0.160882727166
0.161853802668
0.162832249677
0.163811976499
0.164786606883
0.165749805333
0.166695317692
0.167616837837
0.16850780366
0.169361180785
0.170169526383
0.170925742919
0.171624285482
0.172261370675
0.172832759027
0.173328872841
0.173737824375
0.174075952728
0.17432507453
0.17450110611
0.174600816281
0.174627430924
0.174593836521
0.174528679522
0.174453009302
0.174439358047
0.174353179646
0.174072356902
0.173694225951
0.173441495249
0.173328720438
0.173307693103
0.173311853016
0.173245011964
0.173099252848
0.17299963642
0.172931498232
0.172907877593
0.142561813075
0.142575678307
0.142601893255
0.142646081744
0.142706913346
0.14276030612
0.1428244511
0.14290438408
0.14298535247
0.143099382908
0.14324154473
0.143399602175
0.143570979519
0.143748910561
0.143935154377
0.144141619785
0.144370417712
0.144613576493
0.144876680623
0.145166118076
0.145487868237
0.145848074151
0.146255507062
0.146697918969
0.14717180911
0.147699596745
0.148260223898
0.148848399005
0.149480709212
0.150139960843
0.150823901394
0.151527771503
0.152248249108
0.152993409674
0.153766708151
0.154569116667
0.155400096479
0.156258938216
0.157144769619
0.158056331544
0.158992067861
0.159949679945
0.160925649961
0.161915351541
0.162913359039
0.163913696057
0.16491009993
0.165896185122
0.16686546483
0.167811359373
0.168727180214
0.169606106
0.170441443767
0.171227372782
0.171959688658
0.172634889801
0.173249987801
0.173795295475
0.174245393867
0.174666209109
0.174959802974
0.175151364125
0.175230531224
0.175198798352
0.175072600287
0.174912467579
0.174702789055
0.174760663166
0.17482900295
0.174382536434
0.173657979041
0.173272187873
0.173175444859
0.17325542302
0.173389399326
0.173318142056
0.17299678629
0.172856908922
0.17275708005
0.172745071862
0.142376005236
0.142387196688
0.142405162117
0.142454324348
0.142517020492
0.142578821594
0.142647795674
0.142735810933
0.142825149052
0.142939515966
0.14308732888
0.143249122456
0.14342135853
0.143599404897
0.143795933247
0.144013184831
0.144243038936
0.144485329866
0.144748521716
0.14503759157
0.145356739663
0.145712144098
0.146122021846
0.146584123743
0.147065604235
0.147585826132
0.148157139676
0.14875249406
0.149380319823
0.150044242289
0.150732033753
0.151437060221
0.152162352694
0.152916277719
0.153699506789
0.154512166723
0.155354113982
0.156224874438
0.157123827576
0.158049866054
0.159001580586
0.159976897244
0.16097225718
0.161982739732
0.163002799762
0.164026655418
0.165048252745
0.166061122384
0.167058411164
0.16803317058
0.168978681936
0.169888763041
0.170758069658
0.171581947303
0.172355444546
0.17307181128
0.173742084241
0.174376199391
0.174885764527
0.175608933065
0.175916820707
0.176085057676
0.17608877867
0.175922574549
0.175573691669
0.175166615223
0.174638984441
0.174752348403
0.174912058829
0.174895203865
0.17330548384
0.172727571007
0.172766720742
0.173102068885
0.17364131939
0.173558798961
0.172773680455
0.172637935668
0.172477375388
0.172538244987
0.142168549759
0.142181405682
0.142204399148
0.142243645748
0.142301559173
0.142369131013
0.142444216658
0.142537248861
0.142639566107
0.142758111566
0.14291088778
0.14307636721
0.143251038764
0.143430028391
0.143631088146
0.143858767495
0.144094295151
0.144339804921
0.144605157714
0.144895731897
0.145214635306
0.145566022832
0.145973113657
0.146448072682
0.146945855762
0.147466122652
0.148041676217
0.148646556344
0.149273495255
0.149936501454
0.15062329062
0.151331618046
0.152067299777
0.152831801095
0.153625772036
0.154449682453
0.155303723783
0.156187468102
0.157100537294
0.158042304019
0.159011491756
0.160006071815
0.161022577928
0.162055978089
0.163100671442
0.164151190504
0.165201845007
0.166246054385
0.167276392896
0.168285395867
0.16926648404
0.170214871215
0.171127441417
0.171999743377
0.172820486261
0.173571886062
0.174331549575
0.175133543121
0.175344197069
0.175520923016
0.175722931921
0.17585687324
0.175856662338
0.175719399891
0.175472043525
0.175174183879
0.174885268377
0.174759626337
0.17467050926
0.17402893692
0.173228433814
0.17291885756
0.173071324907
0.173577616377
0.174490554865
0.174802308035
0.171697107169
0.172211367522
0.17199232078
0.172338537217
0.141934758638
0.141949370589
0.141982374957
0.142012699679
0.142064799294
0.14213439933
0.142214590389
0.142313953132
0.142431713317
0.142554277269
0.142711204066
0.142880900855
0.143059711764
0.143242970612
0.143447919568
0.1436817292
0.143923619057
0.144175097639
0.144444842992
0.144738421334
0.145059357161
0.145410530224
0.145811347224
0.146287175291
0.146809386886
0.147339857667
0.147907758374
0.148526853029
0.149164321624
0.149818058055
0.150502176585
0.151217066436
0.1519627797
0.152738781281
0.153544793135
0.154381145115
0.155248268789
0.156146228302
0.157074722582
0.158033392906
0.159021489574
0.160037093456
0.161076673958
0.162135140362
0.163207034044
0.164287497148
0.165371492709
0.166452344047
0.167521688444
0.168571177263
0.16959465649
0.170590068933
0.171558004465
0.172491581659
0.173363193883
0.174119362694
0.174792958526
0.175000933208
0.175216436225
0.175421213027
0.175605721955
0.175724180351
0.175720583985
0.175585521694
0.175339920222
0.175025239753
0.174691171342
0.174399839825
0.174117582521
0.173655862015
0.173135134477
0.172798193676
0.172782416403
0.173020863261
0.173318529965
0.172781417617
0.172936863016
0.173171242338
0.17073238054
0.172280881483
0.141670154093
0.141684573579
0.141717465251
0.141750243411
0.141800683313
0.141872463023
0.141955963844
0.14205727199
0.142190006426
0.142324948433
0.142486036905
0.142660962957
0.14284581109
0.143036267682
0.143246974964
0.143485200237
0.143732716157
0.143991162134
0.144266789653
0.144564691237
0.144888776456
0.145242382783
0.145639671325
0.14611119024
0.146651245898
0.147201697846
0.147766482982
0.148382361756
0.149031064716
0.149692343637
0.150375714284
0.151094706966
0.151849510709
0.152637309131
0.153456216981
0.154305979882
0.155187298798
0.156100563179
0.157045831968
0.15802288045
0.15903134523
0.160069747372
0.161134536072
0.162220351463
0.163321900506
0.164435523201
0.165557583678
0.166681257864
0.167796360392
0.16889320924
0.169966445363
0.1710184798
0.172056570958
0.173075184592
0.174053626835
0.17436438838
0.174603058513
0.174853947235
0.175067173273
0.175244853047
0.175376302424
0.17543182772
0.175378243434
0.175207869471
0.174937144038
0.174597515683
0.174224906584
0.173849143964
0.173456967981
0.172991706469
0.172473290535
0.1720465745
0.171846660966
0.171829668279
0.171865832988
0.171745765051
0.171877681088
0.171491387911
0.172439076246
0.174026535632
0.141376444523
0.14139036044
0.141425147971
0.141459268138
0.141511122564
0.141584374405
0.141670857565
0.141771058114
0.141908513674
0.142060724024
0.142230847497
0.142412829279
0.14260575494
0.142807527142
0.143025352404
0.143268403855
0.143521746148
0.14378796769
0.144070550858
0.14437404188
0.144702326036
0.145059190427
0.145455623153
0.145921194129
0.14646634043
0.147045853484
0.147624047243
0.148231622782
0.148879073616
0.149545886956
0.150235543693
0.150962726318
0.151727406352
0.152527060079
0.153359502988
0.154223818939
0.155120350631
0.156050052584
0.157013347111
0.158010312324
0.159040787727
0.160103750408
0.161195987549
0.162311761497
0.163445553733
0.164595323981
0.165759993616
0.166932990968
0.168101606695
0.169253936702
0.170383869289
0.171498916762
0.172616292675
0.173658181377
0.173891115836
0.174138652335
0.174413412624
0.174648150525
0.174829345683
0.174958567841
0.175025102012
0.175008733411
0.174889992422
0.174663382735
0.174339750857
0.173940744942
0.17349094502
0.173009479087
0.172497920786
0.171947368335
0.17135910226
0.170805757075
0.170388235031
0.170113451178
0.169941024447
0.169828249023
0.169966331956
0.170635550234
0.172618335173
0.174966662955
0.141056462426
0.141068917731
0.141099876431
0.141138599658
0.14119646115
0.141271693707
0.141362863762
0.14146380542
0.141602433768
0.141766034062
0.141944751364
0.142133609198
0.142333543429
0.142550243615
0.142779141561
0.143027770751
0.143288024188
0.14356381283
0.14385498003
0.14416552189
0.144499303168
0.144860256391
0.14525781642
0.145719132193
0.146263041249
0.146863926872
0.147466805282
0.14807605899
0.148717689619
0.149385276717
0.150082854648
0.150819406426
0.151594867886
0.152406687995
0.153253412624
0.154133609752
0.155046794955
0.155994052059
0.156976753852
0.157995114905
0.159049308756
0.160138941728
0.16126116843
0.162409735262
0.16357792258
0.164765878751
0.165978493854
0.167209626296
0.168440247207
0.169658041875
0.170851412607
0.172040995224
0.173147165193
0.173423877174
0.173679351598
0.173921434664
0.174159521197
0.17435016861
0.174477630432
0.174536752173
0.174518222965
0.174408988146
0.174197823125
0.17388184337
0.173468645749
0.172973348202
0.172413340592
0.171802758691
0.171147701444
0.170449140823
0.169717907709
0.168966000493
0.168244250038
0.167599895507
0.167035211943
0.166577684786
0.166462470101
0.167089322848
0.169197791648
0.171176805435
0.140714132412
0.140725347502
0.140750862402
0.140794678679
0.140857794616
0.140934863003
0.141030058277
0.141135881154
0.141273416954
0.141443981914
0.14162916586
0.14182375412
0.142028063306
0.142255587226
0.142501251576
0.142758629996
0.143027182923
0.143314085001
0.143616938658
0.143937066188
0.144278514065
0.144644700648
0.145045347174
0.145504816604
0.146043140331
0.146649374357
0.147279042208
0.147906640268
0.148550838822
0.149219879955
0.149921001863
0.150665490395
0.151451737853
0.152275215885
0.153137141744
0.15403448693
0.154965103018
0.155931351161
0.156935026223
0.157976763096
0.159056693296
0.160174831623
0.161329135663
0.162513931371
0.163722823739
0.164956332595
0.166219340098
0.167505658155
0.168805337725
0.170109851626
0.17137577412
0.172564567523
0.172879803732
0.173159135668
0.173414522328
0.173634870873
0.173816439453
0.173938786785
0.173986307961
0.17395112277
0.173825998444
0.173602738681
0.173274916941
0.172841271893
0.172306976653
0.171681994107
0.170977744762
0.17020357781
0.169364334584
0.168461018954
0.167499123921
0.166441469758
0.165295773703
0.164104661218
0.162854731059
0.161526331461
0.160173016866
0.15877271867
0.156962168918
0.153619190657
0.140351405435
0.14036250483
0.140386663121
0.140434948739
0.14049883055
0.14057537514
0.14066999649
0.140782211006
0.140918430343
0.141093670796
0.141284462074
0.141484646539
0.141694218485
0.141927343545
0.142187962951
0.142458055417
0.142737358717
0.143035622727
0.143351710283
0.14368486338
0.144037650988
0.144411145447
0.144816801913
0.145277806484
0.145812019505
0.14641765148
0.147064188725
0.147713946688
0.14836576134
0.149039091332
0.149749242871
0.150500737134
0.151295958644
0.1521321655
0.153009768324
0.153924784748
0.154874156646
0.155860707988
0.156886757916
0.157953583803
0.159061621166
0.160211193583
0.161401853645
0.16263002484
0.163886926779
0.165165764359
0.166472187155
0.16781175934
0.169194098814
0.170633631648
0.171923168542
0.17226908442
0.172563034296
0.172842358822
0.173073750182
0.17324600285
0.173353765106
0.17338519673
0.17332863042
0.173176822092
0.172924287798
0.172565828685
0.172097651587
0.171519025617
0.170832834479
0.170044493491
0.169159736709
0.168182158348
0.167111369716
0.165942280765
0.164670392166
0.163222572711
0.161529805934
0.159584721887
0.157309516871
0.154538305467
0.15104284121
0.146543961987
0.141000021176
0.139259554821
0.139965396855
0.139977008168
0.140002269337
0.140055134583
0.140119105524
0.140194162193
0.140285557848
0.140402035943
0.140535050029
0.140713235556
0.140909636082
0.141115550062
0.141331455373
0.141571261761
0.141842479837
0.142125725122
0.142417857902
0.142728471935
0.143057474494
0.143405257333
0.143773294002
0.144157337043
0.144569827556
0.14503546262
0.145568655583
0.14617224549
0.146827198102
0.147495345281
0.148165663187
0.148848716778
0.149567754913
0.150328416702
0.151131066327
0.151975801849
0.15286667906
0.153801303487
0.154772105182
0.15578081656
0.156830527071
0.157923915127
0.159062713547
0.16024801815
0.161482249694
0.162760917326
0.164065024983
0.165384754519
0.166734038433
0.168134434772
0.169640009657
0.171261994444
0.17162998091
0.171917566349
0.172209509453
0.172458069173
0.172636019434
0.172734570045
0.172747516486
0.172666776937
0.172484698903
0.172195949995
0.171796613068
0.171283286437
0.17065336364
0.169905661858
0.169040460917
0.168058572511
0.166959595907
0.165739749212
0.16438955161
0.162891190309
0.161214317238
0.159305731977
0.156991241295
0.154122929126
0.150532307536
0.145798826496
0.139087222596
0.128608403171
0.109228411293
0.0627604105319
0.139548745139
0.139560779022
0.139589174752
0.139647247447
0.139712053817
0.139786085279
0.139876211131
0.139994145665
0.14012306682
0.140301582742
0.140503134448
0.140714641386
0.140936875069
0.141183508079
0.141463494726
0.141759400356
0.142066784214
0.142391245131
0.142733071046
0.143095598549
0.143481861033
0.143880776773
0.144301685611
0.14477427693
0.145310694361
0.145913006978
0.146570808675
0.147248771585
0.147941894474
0.148648138263
0.149377319284
0.150143793698
0.150956142409
0.15181322515
0.152712886478
0.153662121151
0.154655080851
0.155688028785
0.156764217131
0.15788636342
0.159058144483
0.160285492535
0.161573302038
0.162906148999
0.164255664669
0.165618637811
0.167024992306
0.168507905857
0.169931297844
0.171066407922
0.171328689463
0.171561893295
0.171804040745
0.171988629015
0.172084594107
0.172083508209
0.171979476895
0.171766718592
0.171440468266
0.17099729057
0.170434514555
0.169749617422
0.168940081547
0.168003415366
0.166936819895
0.165736213834
0.164394601857
0.162899883781
0.161232099672
0.159359819142
0.157234296162
0.154787921461
0.151802528615
0.147965659441
0.142987109935
0.136261949504
0.126556165128
0.111461319831
0.0861086591153
0.0440495839337
0.139090970106
0.139103307988
0.139134728219
0.139198444459
0.139263864502
0.13934023962
0.13943092668
0.139548682404
0.139676715873
0.139856458398
0.140063086397
0.140279901175
0.140508094689
0.140760917982
0.141047963047
0.141354275773
0.141679221662
0.142020064959
0.142375767778
0.142753212269
0.143158947657
0.143578541289
0.144010724636
0.144490605172
0.145034447585
0.145639178736
0.146299770715
0.146983791986
0.147691207557
0.148425306036
0.149179177725
0.149956177188
0.150768352255
0.151633189685
0.152547716393
0.153510470165
0.154522175618
0.15557927446
0.156683122845
0.157837198412
0.159047531779
0.160326726642
0.161674385817
0.163061356388
0.164463290691
0.165891274617
0.167405287174
0.168970373733
0.170231173009
0.170670262484
0.17091950057
0.171132883259
0.17131084769
0.171406588061
0.17139737266
0.171275167986
0.171035186242
0.170673794741
0.170188409461
0.169577121246
0.168838085715
0.167968950381
0.166966478095
0.165826208079
0.164541850222
0.163104184824
0.16149935647
0.159706476041
0.157694311595
0.155416520573
0.152804246958
0.149753728932
0.146111800744
0.141473152696
0.135314102426
0.127052756125
0.11557679954
0.0989977469595
0.0739990515229
0.0395425259274
0.138583849589
0.13859834115
0.13863109912
0.13869487248
0.13876442085
0.138848790517
0.138944374534
0.139065310625
0.139199557721
0.139376398897
0.139587285424
0.139809205961
0.140043163674
0.14030173167
0.140594579816
0.14090748919
0.141246734045
0.141607890897
0.141980814659
0.14237558435
0.142800577919
0.143245830929
0.143698592297
0.144184918964
0.14473717461
0.145348794196
0.146014866453
0.14670657639
0.147423266887
0.148178328021
0.148961060777
0.149761140501
0.150581392714
0.151445815901
0.152365557906
0.153341981283
0.154372151488
0.155452933446
0.156584466697
0.157772775161
0.159031313947
0.160372156407
0.16178178644
0.163229954579
0.164708142512
0.166237045349
0.167832329407
0.169181579681
0.16978314108
0.170121854779
0.170404664744
0.170598822376
0.170697352397
0.170687663301
0.170556189522
0.170296407181
0.169905812592
0.169383221735
0.168727930595
0.167939172878
0.167015492661
0.165954150222
0.164750610587
0.163397994611
0.161886286454
0.160201105714
0.158321889896
0.156219312359
0.153851639583
0.151159476333
0.148057941688
0.144424619584
0.140083289841
0.134741271719
0.127802174102
0.118526381739
0.106071508062
0.0890757368641
0.0650950031832
0.0347590640498
0.138033315411
0.138051457446
0.138084334503
0.138141743754
0.138218411764
0.138311359522
0.13841469344
0.138542936566
0.13868952753
0.138862683469
0.139074651539
0.139300665011
0.139540259827
0.1398046133
0.140103464333
0.140423384526
0.140771454215
0.141151113788
0.141544759912
0.141961114552
0.142406365624
0.142877772464
0.143363386662
0.143868758249
0.144425168031
0.145044285204
0.145717817875
0.146420154664
0.147146431818
0.147915886839
0.148721155878
0.149551281565
0.15039189333
0.15125856666
0.152176497699
0.153156276319
0.154199542278