/*--------------------------------*- C++ -*----------------------------------*\
| =========                 |                                                 |
| \\      /  F ield         | OpenFOAM: The Open Source CFD Toolbox           |
|  \\    /   O peration     | Version:  v1806                                 |
|   \\  /    A nd           | Web:      www.OpenFOAM.com                      |
|    \\/     M anipulation  |                                                 |
\*---------------------------------------------------------------------------*/
FoamFile
{
    version     2.0;
    format      ascii;
    class       surfaceScalarField;
    location    "1000";
    object      phi;
}
// * * * * * * * * * * * * * * * * * * * * * * * * * * * * * * * * * * * * * //

dimensions      [0 3 -1 0 0 0 0];
oriented        oriented;


internalField   nonuniform List<scalar> 
12640
(
-2.47573658493e-07
2.47497610689e-07
-4.62297822127e-07
2.1468667771e-07
-6.41493829126e-07
1.79173501789e-07
-7.88603417017e-07
1.47100587798e-07
-8.98241212577e-07
1.0962491424e-07
-9.70571669888e-07
7.23068720119e-08
-1.02389425068e-06
5.32994602432e-08
-1.09581984395e-06
7.19054888936e-08
-1.18718770833e-06
9.1354173122e-08
-1.27233895796e-06
8.51424075231e-08
-1.34924954905e-06
7.6907584966e-08
-1.42477386885e-06
7.55230842084e-08
-1.49095541451e-06
6.61826826877e-08
-1.54526480209e-06
5.43107073176e-08
-1.59438747636e-06
4.91257807021e-08
-1.6480643113e-06
5.36767044905e-08
-1.70244249715e-06
5.43806682132e-08
-1.74869784367e-06
4.62584455724e-08
-1.78634404453e-06
3.76566503173e-08
-1.82213383741e-06
3.58034255174e-08
-1.86602272502e-06
4.39066521215e-08
-1.91718114332e-06
5.11744126541e-08
-1.96736365311e-06
5.02000734225e-08
-2.01290509675e-06
4.55556020614e-08
-2.05334365182e-06
4.04539858217e-08
-2.0892382857e-06
3.59065007525e-08
-2.12186818751e-06
3.26431804993e-08
-2.15075013511e-06
2.88911759437e-08
-2.17545216248e-06
2.47126759741e-08
-2.19683390494e-06
2.13881370308e-08
-2.21648532442e-06
1.96593246945e-08
-2.23388691716e-06
1.74047771187e-08
-2.24821609804e-06
1.43331572743e-08
-2.261681009e-06
1.34650809431e-08
-2.27461670984e-06
1.29385424209e-08
-2.28614999527e-06
1.15314251203e-08
-2.29670432142e-06
1.05545015993e-08
-2.30531945637e-06
8.61152194445e-09
-2.31048290655e-06
5.16127548136e-09
-2.31198325362e-06
1.49228940308e-09
-2.31126544413e-06
-7.25571902422e-10
-2.30720309964e-06
-4.07588506032e-09
-2.29728359918e-06
-9.93224360562e-09
-2.28279777854e-06
-1.45034611163e-08
-2.26511525952e-06
-1.76991390075e-08
-2.24376700369e-06
-2.13699281507e-08
-2.21822166194e-06
-2.55660122524e-08
-2.1877463329e-06
-3.05005679958e-08
-2.15212520987e-06
-3.56449755571e-08
-2.11285199642e-06
-3.93007117125e-08
-2.07167744572e-06
-4.11993605043e-08
-2.02606833159e-06
-4.56364873026e-08
-1.97059960289e-06
-5.54938695997e-08
-1.90590231073e-06
-6.47242356388e-08
-1.83190949402e-06
-7.40163624147e-08
-1.74722642364e-06
-8.47061388738e-08
-1.65768066532e-06
-8.95628462982e-08
-1.56458758804e-06
-9.31068507849e-08
-1.46174842486e-06
-1.02845455692e-07
-1.34890531554e-06
-1.12842431399e-07
-1.22944392214e-06
-1.19450124865e-07
-1.09543231937e-06
-1.33995290437e-07
-9.31072332274e-07
-1.64344948417e-07
-7.44825900931e-07
-1.86245713116e-07
-5.83221841514e-07
-1.61605157101e-07
-4.66213856026e-07
-1.17013761523e-07
-3.72068897212e-07
-9.41493047879e-08
-2.8702356837e-07
-8.50495143977e-08
-2.07525745617e-07
-7.95021906999e-08
-1.333116262e-07
-7.42212225537e-08
-6.95181727778e-08
-6.38006467351e-08
-2.094129585e-08
-4.85819445856e-08
1.18722270733e-08
-3.28211594966e-08
3.21438032683e-08
-2.0281034378e-08
4.13734339266e-08
-9.2414440523e-09
4.31672039642e-08
-1.80079059772e-09
4.14051968858e-08
1.75737681386e-09
3.29848106293e-08
8.424701533e-09
2.12396953622e-08
1.16863427121e-08
2.12378518833e-08
-1.33163680623e-07
3.80669176991e-07
-3.07733072117e-07
3.89240918677e-07
-4.72143986201e-07
3.43579919678e-07
-6.3451270939e-07
3.09464246353e-07
-8.23172638585e-07
2.98268877028e-07
-9.60321060697e-07
2.09438798525e-07
-1.03951932146e-06
1.3247386691e-07
-1.11488619671e-06
1.47258314095e-07
-1.19730869402e-06
1.7376388066e-07
-1.28335425855e-06
1.7118542449e-07
-1.36351776456e-06
1.57067148577e-07
-1.43080630629e-06
1.42815030048e-07
-1.49008054751e-06
1.25454939049e-07
-1.54436058841e-06
1.08593017191e-07
-1.59541057047e-06
1.0017090244e-07
-1.65003470858e-06
1.08304843525e-07
-1.70161319187e-06
1.05959258968e-07
-1.73581466204e-06
8.04727225344e-08
-1.7664793152e-06
6.8332067205e-08
-1.80805333198e-06
7.73991370517e-08
-1.85964999893e-06
9.55197368811e-08
-1.9173207146e-06
1.08869130672e-07
-1.9706703709e-06
1.03563940419e-07
-2.01393754617e-06
8.88443061316e-08
-2.05263578039e-06
7.91639942444e-08
-2.09025099785e-06
7.35409382922e-08
-2.12330055165e-06
6.57019009249e-08
-2.1514023167e-06
5.70096143567e-08
-2.1760709599e-06
4.93876657768e-08
-2.19783505985e-06
4.31657947374e-08
-2.21666871877e-06
3.84957340052e-08
-2.23290294331e-06
3.36482605766e-08
-2.24619418707e-06
2.76239853986e-08
-2.2589971512e-06
2.62751088674e-08
-2.273417804e-06
2.73559031265e-08
-2.28552957334e-06
2.36487388813e-08
-2.29541447787e-06
2.04349859304e-08
-2.30541613484e-06
1.86155523115e-08
-2.31411208683e-06
1.38487365055e-08
-2.31731163052e-06
4.68921952998e-09
-2.30876154278e-06
-9.29003286924e-09
-2.29261857187e-06
-2.02278631545e-08
-2.27855667606e-06
-2.4013362541e-08
-2.26590918603e-06
-2.71646080067e-08
-2.25104135839e-06
-3.25902159954e-08
-2.23294287273e-06
-3.94868176482e-08
-2.21060905795e-06
-4.79272733141e-08
-2.18391931644e-06
-5.72131882231e-08
-2.15232134694e-06
-6.72734977198e-08
-2.11306312703e-06
-7.858466862e-08
-2.06411214679e-06
-9.01821397494e-08
-2.0106489307e-06
-9.9126443984e-08
-1.9603464264e-06
-1.05827550442e-07
-1.90307041612e-06
-1.22026558245e-07
-1.8319363908e-06
-1.45178775769e-07
-1.75463886192e-06
-1.62025342249e-07
-1.66990580593e-06
-1.74317140087e-07
-1.57412110125e-06
-1.88904370469e-07
-1.46975805063e-06
-2.07217270105e-07
-1.35475861279e-06
-2.27839349884e-07
-1.22240273691e-06
-2.51800944445e-07
-1.07620764509e-06
-2.80178196119e-07
-9.10215249418e-07
-3.30329520184e-07
-7.29931145621e-07
-3.66522928509e-07
-5.63593144929e-07
-3.27951126523e-07
-4.31093226341e-07
-2.49519065161e-07
-3.36255437104e-07
-1.88994427037e-07
-2.59242765523e-07
-1.62068057164e-07
-1.85634864374e-07
-1.53117872337e-07
-1.14752915851e-07
-1.45108811188e-07
-5.34356488418e-08
-1.2512361145e-07
-7.49583005814e-09
-9.45264803658e-08
2.36782307791e-08
-6.40006684137e-08
4.36019743978e-08
-4.02122838421e-08
5.43476654006e-08
-1.99955989602e-08
5.79946597765e-08
-5.45434510823e-09
5.43340073115e-08
5.40955174679e-09
4.45703264701e-08
1.81650845176e-08
2.5322467566e-08
3.09443917809e-08
4.64957243152e-08
-1.66558024372e-07
5.47170696239e-07
-2.59796256578e-07
4.82467269585e-07
-4.4986092727e-07
5.33635942267e-07
-6.58947763379e-07
5.18536489993e-07
-8.49217693566e-07
4.88520260854e-07
-9.53172751636e-07
3.13380901765e-07
-1.00805481141e-06
1.87349226548e-07
-1.09136550335e-06
2.30562327954e-07
-1.18622138558e-06
2.68616791692e-07
-1.27723343077e-06
2.62196300334e-07
-1.36051114298e-06
2.40345812706e-07
-1.43103373722e-06
2.13334513534e-07
-1.49095323726e-06
1.85368969052e-07
-1.54675129639e-06
1.64383915638e-07
-1.59239776071e-06
1.45814485825e-07
-1.59899176852e-06
1.14898955618e-07
-1.58266538726e-06
8.96416573972e-08
-1.60061169953e-06
9.84308621454e-08
-1.66650056047e-06
1.34239309775e-07
-1.76716533355e-06
1.78082554342e-07
-1.8624172157e-06
1.90792604099e-07
-1.92332017086e-06
1.69789576783e-07
-1.96871352469e-06
1.48976952116e-07
-2.01440550474e-06
1.34552092974e-07
-2.056491036e-06
1.21267299724e-07
-2.0919504671e-06
1.09014183568e-07
-2.12328088452e-06
9.70479765935e-08
-2.15152618457e-06
8.52661146363e-08
-2.17631935925e-06
7.41933765374e-08
-2.19818282005e-06
6.50367790113e-08
-2.21621466785e-06
5.65360245104e-08
-2.23191669458e-06
4.9354751658e-08
-2.24685678202e-06
4.25690946105e-08
-2.25663897803e-06
3.60588074057e-08
-2.26788261446e-06
3.86043930148e-08
-2.28474397971e-06
4.05103760021e-08
-2.29631542865e-06
3.20080538656e-08
-2.30402029836e-06
2.63174426694e-08
-2.31302253902e-06
2.28484437003e-08
-2.31828450667e-06
9.9422205368e-09
-2.31774175742e-06
-9.84202106684e-09
-2.31201017389e-06
-2.59741700128e-08
-2.30113678213e-06
-3.49010938689e-08
-2.28649704429e-06
-4.18239703864e-08
-2.26862513146e-06
-5.04817340111e-08
-2.24702425145e-06
-6.11123087668e-08
-2.22157743644e-06
-7.33985522394e-08
-2.19192650392e-06
-8.68927751677e-08
-2.15767583642e-06
-1.01552198733e-07
-2.11890172642e-06
-1.17390186785e-07
-2.07575059998e-06
-1.33363436752e-07
-2.0264741366e-06
-1.48435075026e-07
-1.96692973632e-06
-1.65402331937e-07
-1.89998428334e-06
-1.89002767263e-07
-1.83052810519e-06
-2.14661709399e-07
-1.75446241567e-06
-2.3811559523e-07
-1.6668230219e-06
-2.61975186622e-07
-1.5674864983e-06
-2.88254688661e-07
-1.4571659809e-06
-3.17543879833e-07
-1.33490485183e-06
-3.50101114364e-07
-1.19943239185e-06
-3.8726679311e-07
-1.04050588273e-06
-4.39095355765e-07
-8.56323548736e-07
-5.14502492745e-07
-6.64706199711e-07
-5.58140003571e-07
-5.03502129455e-07
-4.89154178633e-07
-3.9259350362e-07
-3.60433686358e-07
-2.98464917922e-07
-2.83130203129e-07
-2.14515936841e-07
-2.46025082582e-07
-1.40675664114e-07
-2.269645034e-07
-7.49542283318e-08
-2.10835282115e-07
-2.0084887629e-08
-1.7999499654e-07
2.1960878483e-08
-1.36573648785e-07
5.14723782562e-08
-9.35159825391e-08
6.62639942122e-08
-5.50101587603e-08
7.13931596826e-08
-2.51349092346e-08
7.04579219953e-08
-4.52941268557e-09
6.4454771125e-08
1.14081040803e-08
5.31302550398e-08
2.94956775079e-08
2.52347560278e-08
5.87449253277e-08
7.17463486868e-08
-1.21483173189e-07
6.68672313203e-07
-1.71852238012e-07
5.32828957626e-07
-3.81512897067e-07
7.43282143723e-07
-5.56699590289e-07
6.93703897507e-07
-5.87043871581e-07
5.18853590948e-07
-5.4446036279e-07
2.70795123093e-07
-7.300725505e-07
3.72963417305e-07
-9.90339342799e-07
4.9083361673e-07
-1.15128491965e-06
4.2956374457e-07
-1.26080809842e-06
3.71720609583e-07
-1.35414784607e-06
3.33681786324e-07
-1.4331232088e-06
2.92300589712e-07
-1.49101604115e-06
2.43250697373e-07
-1.5048316346e-06
1.78190538241e-07
-1.4832162878e-06
1.24196755108e-07
-1.48178876058e-06
1.13479399863e-07
-1.53422175941e-06
1.42087741612e-07
-1.63409676974e-06
1.9832352853e-07
-1.74546395733e-06
2.45624305438e-07
-1.82288334805e-06
2.55520596077e-07
-1.87314809394e-06
2.41074892969e-07
-1.924037188e-06
2.2069798082e-07
-1.97382095059e-06
1.98778303646e-07
-2.01747833557e-06
1.78227799352e-07
-2.05631510511e-06
1.60119769004e-07
-2.09114787467e-06
1.43863335968e-07
-2.12313489967e-06
1.29048408867e-07
-2.15175475558e-06
1.13900080841e-07
-2.1769696744e-06
9.94188511287e-08
-2.19787817169e-06
8.5955136945e-08
-2.21680348633e-06
7.54678614029e-08
-2.23115279929e-06
6.37099868267e-08
-2.24179034316e-06
5.32114533217e-08
-2.25904475184e-06
5.33191817124e-08
-2.2740372143e-06
5.35999837518e-08
-2.28650668555e-06
5.29834849441e-08
-2.30460168044e-06
5.01033134674e-08
-2.31816535253e-06
3.98801319069e-08
-2.32206813656e-06
2.67455404599e-08
-2.32155445329e-06
9.4216583383e-09
-2.31963808278e-06
-1.17694788339e-08
-2.31481149071e-06
-3.08133012077e-08
-2.3051112538e-06
-4.461850168e-08
-2.29081498014e-06
-5.61391053637e-08
-2.27267113215e-06
-6.8648735625e-08
-2.25074677915e-06
-8.30611903819e-08
-2.22492617874e-06
-9.92472526316e-08
-2.19493501071e-06
-1.16912749979e-07
-2.16053132476e-06
-1.35987482272e-07
-2.12159365005e-06
-1.56359733483e-07
-2.07748880645e-06
-1.77502368871e-07
-2.02647125683e-06
-1.99486539417e-07
-1.96745984892e-06
-2.2444811862e-07
-1.90245602936e-06
-2.54038155692e-07
-1.83136903686e-06
-2.8577764218e-07
-1.7511385697e-06
-3.18369538526e-07
-1.65944610069e-06
-3.53686444027e-07
-1.55483518351e-06
-3.92877551834e-07
-1.43595361211e-06
-4.36431558025e-07
-1.30057853219e-06
-4.85476421275e-07
-1.14441236121e-06
-5.43430204744e-07
-9.6770202657e-07
-6.15798256366e-07
-7.9452245395e-07
-6.87672662121e-07
-6.3388887157e-07
-7.18760681305e-07
-4.69817416859e-07
-6.5322759648e-07
-3.36046788566e-07
-4.94209802866e-07
-2.3577259418e-07
-3.83413729827e-07
-1.54382717165e-07
-3.27422744947e-07
-8.61270244273e-08
-2.9522507285e-07
-2.51880392658e-08
-2.71773330605e-07
2.94951309707e-08
-2.34676494204e-07
6.74843100648e-08
-1.74562750406e-07
8.16677321989e-08
-1.0770083198e-07
8.38022503243e-08
-5.7152299801e-08
8.32792139382e-08
-2.46180347643e-08
7.69954210744e-08
1.7466419391e-09
6.10828299229e-08
2.7308859602e-08
4.38121759051e-08
4.67294920628e-08
2.35757312784e-08
7.90135815275e-08
9.52712292739e-08
-3.29543719652e-08
7.0158908371e-07
-1.51834020461e-07
6.51697719539e-07
-3.22574609413e-07
9.14002364999e-07
-4.61147807278e-07
8.32251286367e-07
-4.60608203944e-07
5.1830708962e-07
-5.69369399566e-07
3.7956100255e-07
-7.8917994713e-07
5.92781744889e-07
-9.56195523788e-07
6.57850823194e-07
-1.09912056016e-06
5.72491855721e-07
-1.22400620007e-06
4.96601908721e-07
-1.33432175857e-06
4.43985277003e-07
-1.40230390322e-06
3.60270050093e-07
-1.40289617693e-06
2.43831957122e-07
-1.3945473694e-06
1.69839913394e-07
-1.43682956972e-06
1.66487446152e-07
-1.52411548506e-06
2.00778909636e-07
-1.63245799441e-06
2.50447455028e-07
-1.72337862208e-06
2.89261979493e-07
-1.77898726029e-06
3.0125058497e-07
-1.82265561961e-06
2.99205973378e-07
-1.87383655821e-06
2.92273954854e-07
-1.92647912709e-06
2.73358796689e-07
-1.97490357129e-06
2.47221370186e-07
-2.01790955227e-06
2.21250889525e-07
-2.05615104649e-06
1.9837851743e-07
-2.09144057118e-06
1.79168100124e-07
-2.12277980908e-06
1.60403767856e-07
-2.15188009217e-06
1.43013576137e-07
-2.17623981409e-06
1.23789965977e-07
-2.19683386979e-06
1.06557847208e-07
-2.21132691087e-06
8.99688204498e-08
-2.22810315088e-06
8.04937173917e-08
-2.25086265838e-06
7.59787710349e-08
-2.26591956253e-06
6.83830797892e-08
-2.28266184574e-06
7.03486895546e-08
-2.30186959052e-06
7.21945614353e-08
-2.31505610964e-06
6.32908712731e-08
-2.32307779258e-06
4.78991897888e-08
-2.32622112611e-06
2.98842075201e-08
-2.32599743052e-06
9.18979071509e-09
-2.32400913214e-06
-1.37683098037e-08
-2.31930859073e-06
-3.55283124562e-08
-2.31014157035e-06
-5.3802769502e-08
-2.2962143907e-06
-7.00876755884e-08
-2.27804242098e-06
-8.68448191956e-08
-2.25589128444e-06
-1.05239988798e-07
-2.22973036567e-06
-1.2543771542e-07
-2.19935898471e-06
-1.47316372325e-07
-2.16454195245e-06
-1.70838134573e-07
-2.12496025112e-06
-1.95977418734e-07
-2.07981941308e-06
-2.22680307486e-07
-2.02788617552e-06
-2.51458072167e-07
-1.96871332361e-06
-2.83657957445e-07
-1.90289917206e-06
-3.19886838727e-07
-1.82938475293e-06
-3.59321501733e-07
-1.74530977463e-06
-4.02469028188e-07
-1.64776277825e-06
-4.51251321909e-07
-1.53382716214e-06
-5.06825156497e-07
-1.40043799298e-06
-5.69826748801e-07
-1.2447996088e-06
-6.41116797697e-07
-1.06794531877e-06
-7.20280489092e-07
-8.85944610907e-07
-7.97790779572e-07
-7.25732331932e-07
-8.47870209468e-07
-5.71390869887e-07
-8.73099350411e-07
-4.2687902477e-07
-7.97734077106e-07
-2.94380045227e-07
-6.26715909499e-07
-1.79293380915e-07
-4.98507914398e-07
-8.72419071667e-08
-4.1948033765e-07
-1.50381468407e-08
-3.67429434576e-07
4.71201496085e-08
-3.33930537841e-07
9.5136265027e-08
-2.82688623662e-07
1.104371894e-07
-1.89859573107e-07
1.07734325271e-07
-1.05001469779e-07
1.05458630037e-07
-5.48762549581e-08
1.0031342395e-07
-1.94817806912e-08
8.67070999934e-08
1.53421120691e-08
6.92687874658e-08
4.47379079774e-08
4.96228948363e-08
6.63888399261e-08
2.39731422171e-08
1.04575524931e-07
1.19259873674e-07
-1.95953479449e-08
7.21204360981e-07
-1.77527778994e-07
8.0962151077e-07
-2.80276573287e-07
1.01672852321e-06
-3.53361870289e-07
9.05324559409e-07
-3.62728233589e-07
5.27671289137e-07
-6.04086176639e-07
6.20923593108e-07
-8.18531377903e-07
8.07229151005e-07
-9.31149472223e-07
7.70472486402e-07
-1.05619344937e-06
6.97528304753e-07
-1.17351098715e-06
6.13909574312e-07
-1.24374892221e-06
5.14209606625e-07
-1.22678056509e-06
3.43289232985e-07
-1.23331007369e-06
2.50359233733e-07
-1.30806949044e-06
2.44606560891e-07
-1.4214998572e-06
2.79931859625e-07
-1.55542305944e-06
3.34720114275e-07
-1.66460684313e-06
3.59648606122e-07
-1.72587308571e-06
3.50544053016e-07
-1.76952402155e-06
3.44917508168e-07
-1.82402127726e-06
3.5372042196e-07
-1.87872874897e-06
3.46999503424e-07
-1.92808240036e-06
3.22730975538e-07
-1.9746067239e-06
2.93764172614e-07
-2.01868285073e-06
2.65345884321e-07
-2.05784829224e-06
2.37561257617e-07
-2.08880343539e-06
2.10140477414e-07
-2.12056688011e-06
1.92182385446e-07
-2.14903480539e-06
1.71495470438e-07
-2.17386120717e-06
1.48628728474e-07
-2.1891161072e-06
1.2182329744e-07
-2.2045153329e-06
1.05377506493e-07
-2.22348668192e-06
9.94750156401e-08
-2.24199425402e-06
9.44965882352e-08
-2.27219135116e-06
9.85897519641e-08
-2.29780796984e-06
9.59725423457e-08
-2.31312491546e-06
8.75155002278e-08
-2.32262499235e-06
7.27914280289e-08
-2.32868610259e-06
5.39579000153e-08
-2.33156391874e-06
3.2756487797e-08
-2.33175617972e-06
9.37383441832e-09
-2.32985072858e-06
-1.56852908101e-08
-2.32512813137e-06
-4.02658239711e-08
-2.31623080993e-06
-6.27192110634e-08
-2.30263507886e-06
-8.37063296049e-08
-2.28457124114e-06
-1.04935458536e-07
-2.26228937787e-06
-1.27551598401e-07
-2.23581074469e-06
-1.51949127132e-07
-2.20496549718e-06
-1.7819674747e-07
-2.16948741449e-06
-2.06353995879e-07
-2.12896813881e-06
-2.36536666777e-07
-2.08269643667e-06
-2.68994184612e-07
-2.02983303749e-06
-3.04363832716e-07
-1.96994071997e-06
-3.43591277108e-07
-1.90255496083e-06
-3.87309117362e-07
-1.82572579167e-06
-4.36181062983e-07
-1.73605073297e-06
-4.9216834606e-07
-1.62953151366e-06
-5.57788847182e-07
-1.50190819704e-06
-6.3446046432e-07
-1.34973842902e-06
-7.2200369321e-07
-1.17343248919e-06
-8.17424495839e-07
-9.83240749611e-07
-9.10470020023e-07
-8.00396064854e-07
-9.80624918703e-07
-6.38862621429e-07
-1.00939717633e-06
-4.86176464998e-07
-1.02576302996e-06
-3.42579431517e-07
-9.41333173305e-07
-2.24172674888e-07
-7.4512399921e-07
-1.10301711564e-07
-6.12383564394e-07
-8.49545876775e-09
-5.21291177592e-07
7.50652812592e-08
-4.50990920085e-07
1.38109093924e-07
-3.96966339203e-07
1.6051038031e-07
-3.05079131622e-07
1.49379355337e-07
-1.78726207446e-07
1.39216331499e-07
-9.48314093444e-08
1.31290010803e-07
-4.6957191446e-08
1.20388676355e-07
-8.58331732244e-09
1.02991190267e-07
3.27326928258e-08
8.19658585063e-08
6.57534162162e-08
5.87609731846e-08
8.95438400947e-08
3.04093965033e-08
1.32963740992e-07
1.49626736185e-07
-7.1689273601e-08
7.92867245538e-07
-2.46946676934e-07
9.84863150883e-07
-3.3870957896e-07
1.1084649009e-06
-3.20663446532e-07
8.87264220404e-07
-4.28590702856e-07
6.35600013147e-07
-6.77591929471e-07
8.69927948378e-07
-8.02203287023e-07
9.31843121485e-07
-9.03540145155e-07
8.71799833704e-07
-1.00098175769e-06
7.94964763133e-07
-1.12244067264e-06
7.35349073281e-07
-1.13870075516e-06
5.30455154836e-07
-1.13599526803e-06
3.40577753594e-07
-1.21365780063e-06
3.28026916606e-07
-1.31725216543e-06
3.48215291568e-07
-1.45486219266e-06
4.17558893105e-07
-1.57925127107e-06
4.59123998595e-07
-1.65039509161e-06
4.30806637428e-07
-1.70021525997e-06
4.00379735629e-07
-1.76514042323e-06
4.09860036962e-07
-1.82713387167e-06
4.15731999669e-07
-1.87975222255e-06
3.99636246016e-07
-1.92937255963e-06
3.72370366225e-07
-1.97689145165e-06
3.41303541742e-07
-2.01823623643e-06
3.06709568582e-07
-2.05310944211e-06
2.72452894224e-07
-2.08597922549e-06
2.43028155966e-07
-2.11259767466e-06
2.18817999459e-07
-2.14115581876e-06
2.00069309533e-07
-2.16319459991e-06
1.70681117392e-07
-2.17985006186e-06
1.38490938381e-07
-2.20160007679e-06
1.27140346872e-07
-2.22576952284e-06
1.2365693767e-07
-2.25597616137e-06
1.24715932971e-07
-2.28341433023e-06
1.26038865417e-07
-2.30755010492e-06
1.20115811201e-07
-2.32177174999e-06
1.01741066329e-07
-2.32997481921e-06
8.0995209302e-08
-2.33533549097e-06
5.93161014153e-08
-2.33831136646e-06
3.57268425214e-08
-2.33886707943e-06
9.9206661011e-09
-2.33706557966e-06
-1.74992725455e-08
-2.33231408226e-06
-4.5033996588e-08
-2.3235668606e-06
-7.14873775985e-08
-2.31023546902e-06
-9.70630603821e-08
-2.29231933493e-06
-1.22880749648e-07
-2.26995526841e-06
-1.49948566187e-07
-2.24313410261e-06
-1.78806454838e-07
-2.21167794387e-06
-2.09692450118e-07
-2.17530526844e-06
-2.42769386935e-07
-2.13362125841e-06
-2.78266584374e-07
-2.08605910419e-06
-3.16603695991e-07
-2.03196359994e-06
-3.58506920599e-07
-1.97063081854e-06
-4.0496825035e-07
-1.90071731314e-06
-4.57260261934e-07
-1.8193866406e-06
-5.17543008636e-07
-1.72233080366e-06
-5.89250890957e-07
-1.60440560183e-06
-6.75735446331e-07
-1.46099810172e-06
-7.77883279928e-07
-1.29110892576e-06
-8.91901628719e-07
-1.10077817214e-06
-1.00775771076e-06
-9.07420300388e-07
-1.10382273388e-06
-7.28245140931e-07
-1.15979467979e-06
-5.58845299736e-07
-1.17876792405e-06
-4.18067119774e-07
-1.16653956791e-06
-2.65003115618e-07
-1.09438000339e-06
-1.35081812948e-07
-8.75042820127e-07
-2.21840152332e-08
-7.25283344174e-07
8.96885943558e-08
-6.33164164139e-07
1.83961073268e-07
-5.45253531974e-07
2.31843732228e-07
-4.44835166439e-07
2.2179549511e-07
-2.9502064952e-07
1.9624864317e-07
-1.53164221809e-07
1.75237151218e-07
-7.38249399718e-08
1.57405494212e-07
-2.91193727683e-08
1.41919318385e-07
6.89552443844e-09
1.26156703053e-07
4.84837133693e-08
1.02032448463e-07
8.98596814963e-08
7.17737564501e-08
1.1981947372e-07
3.94649278499e-08
1.65188215573e-07
1.89110674161e-07
-1.20985592319e-07
9.13873042121e-07
-2.68215330342e-07
1.13207872142e-06
-3.22382812704e-07
1.16262381625e-06
-2.63368682791e-07
8.28244440696e-07
-4.670227293e-07
8.39253692907e-07
-6.66260612362e-07
1.06916672178e-06
-7.71693114311e-07
1.03726696918e-06
-8.79873875486e-07
9.79973687336e-07
-9.33971370198e-07
8.49039245257e-07
-9.90913701675e-07
7.92279702631e-07
-9.97319814611e-07
5.36850992556e-07
-1.10420151251e-06
4.47461815674e-07
-1.20517466033e-06
4.29009805685e-07
-1.3401016592e-06
4.83155862434e-07
-1.47862737672e-06
5.56099309384e-07
-1.5598812173e-06
5.40390671174e-07
-1.61443195089e-06
4.85370179089e-07
-1.69011184451e-06
4.76075455836e-07
-1.76603995025e-06
4.85806316397e-07
-1.82582627263e-06
4.75537139467e-07
-1.87712237177e-06
4.50952441586e-07
-1.92575764327e-06
4.21027617817e-07
-1.9751501955e-06
3.90716240844e-07
-2.02182825951e-06
3.53407666122e-07
-2.05459152432e-06
3.0523676183e-07
-2.08887797324e-06
2.77333728326e-07
-2.11747203155e-06
2.47430500319e-07
-2.1323698903e-06
2.1498452574e-07
-2.15344527646e-06
1.91772647274e-07
-2.1923293851e-06
1.7739088473e-07
-2.22117838313e-06
1.56004534738e-07
-2.23771806497e-06
1.40212738074e-07
-2.26677792968e-06
1.53790272839e-07
-2.29792448737e-06
1.57196995465e-07
-2.31659672993e-06
1.3879615942e-07
-2.32904173859e-06
1.14190521183e-07
-2.33755457685e-06
8.95091238741e-08
-2.34316593796e-06
6.49250342804e-08
-2.34638428993e-06
3.89392919424e-08
-2.34724323676e-06
1.07699177939e-08
-2.34557344681e-06
-1.91828255767e-08
-2.34083680069e-06
-4.9788973047e-08
-2.33221781467e-06
-8.0129465204e-08
-2.31912244973e-06
-1.1018616231e-07
-2.30136540798e-06
-1.40670008301e-07
-2.27892646057e-06
-1.72423912723e-07
-2.25170740398e-06
-2.0606608973e-07
-2.21948880091e-06
-2.41955804162e-07
-2.18198822251e-06
-2.80318883137e-07
-2.13886815797e-06
-3.21438429203e-07
-2.08968206306e-06
-3.6584343608e-07
-2.0338016739e-06
-4.14439191468e-07
-1.9701778802e-06
-4.68638961188e-07
-1.89676256736e-06
-5.30712556599e-07
-1.80998706543e-06
-6.04356354403e-07
-1.70484358864e-06
-6.94424338459e-07
-1.57574278494e-06
-8.04860216653e-07
-1.41887845557e-06
-9.34770911041e-07
-1.23609907428e-06
-1.07469714831e-06
-1.0353161273e-06
-1.20854727336e-06
-8.34901794301e-07
-1.30423667582e-06
-6.47022498763e-07
-1.34765291253e-06
-4.82623690894e-07
-1.34316345216e-06
-3.52408387955e-07
-1.29671982639e-06
-2.17883574403e-07
-1.22889542077e-06
-4.58670510303e-08
-1.04705259277e-06
8.10181960835e-08
-8.52170044969e-07
1.97054989759e-07
-7.49200030929e-07
2.93963919793e-07
-6.42163894825e-07
3.27068015081e-07
-4.77920914806e-07
2.97858079578e-07
-2.657868874e-07
2.52460502936e-07
-1.0776304667e-07
2.07724051421e-07
-2.90722191485e-08
1.77723606512e-07
8.73660875454e-10
1.66103331799e-07
1.85116194964e-08
1.58129749955e-07
5.6447841554e-08
1.32607131483e-07
1.15369364766e-07
9.10171590498e-08
1.61352596064e-07
4.80115744845e-08
2.08236631489e-07
2.37090368265e-07
-1.49332366259e-07
1.0631733304e-06
-2.61596749683e-07
1.24432587125e-06
-2.76884335974e-07
1.17789039452e-06
-3.15449645917e-07
8.668050087e-07
-5.29224025386e-07
1.05302444934e-06
-6.32207599824e-07
1.17214168133e-06
-7.32132003317e-07
1.13717849307e-06
-8.38931123646e-07
1.08675541672e-06
-8.99292310338e-07
9.0938824438e-07
-9.5964208713e-07
8.52611590343e-07
-1.00208231756e-06
5.79289325908e-07
-1.1008700292e-06
5.46253075147e-07
-1.21852144602e-06
5.46674681968e-07
-1.36393076115e-06
6.28579614092e-07
-1.48264613668e-06
6.74822870539e-07
-1.5496568553e-06
6.07410488103e-07
-1.6101369859e-06
5.45863597001e-07
-1.68711490252e-06
5.53070801559e-07
-1.7600661744e-06
5.58777192861e-07
-1.82302402249e-06
5.38517118765e-07
-1.87753540856e-06
5.05488092844e-07
-1.92333607098e-06
4.66849767258e-07
-1.96378095137e-06
4.31182048379e-07
-2.00603886972e-06
3.95687105672e-07
-2.04440992671e-06
3.43628414095e-07
-2.07167430171e-06
3.04619839587e-07
-2.10584605779e-06
2.81623094009e-07
-2.14125833983e-06
2.50416573766e-07
-2.17057312571e-06
2.21105555919e-07
-2.19606828483e-06
2.0290488011e-07
-2.22476924595e-06
1.84725487009e-07
-2.26559129572e-06
1.81054042537e-07
-2.29106121315e-06
1.79276987205e-07
-2.30894856096e-06
1.75097293677e-07
-2.32456788772e-06
1.5442405551e-07
-2.33701008319e-06
1.26637707318e-07
-2.34608492024e-06
9.85853445625e-08
-2.3521305595e-06
7.09684897294e-08
-2.3556273585e-06
4.24298212228e-08
-2.35675431137e-06
1.18863315697e-08
-2.35528504616e-06
-2.06674834598e-08
-2.35066665663e-06
-5.44277712002e-08
-2.34221119876e-06
-8.86104723801e-08
-2.32935877478e-06
-1.23069256648e-07
-2.31178039161e-06
-1.58284100955e-07
-2.28926686823e-06
-1.94978243581e-07
-2.26158776475e-06
-2.33791193584e-07
-2.2284557659e-06
-2.75139046829e-07
-2.18957533901e-06
-3.19254816161e-07
-2.1446586787e-06
-3.66414116918e-07
-2.09333143557e-06
-4.17229326849e-07
-2.03492376568e-06
-4.72903023384e-07
-1.96810528516e-06
-5.35500864558e-07
-1.89046683107e-06
-6.0839792153e-07
-1.79826725014e-06
-6.96590573054e-07
-1.68666674309e-06
-8.06061848708e-07
-1.55008423273e-06
-9.41488005188e-07
-1.38414892262e-06
-1.10073777092e-06
-1.1914480786e-06
-1.26742072623e-06
-9.75110228059e-07
-1.42489489752e-06
-7.59876246319e-07
-1.51946540813e-06
-5.60120225594e-07
-1.54740713947e-06
-3.87919348607e-07
-1.51532890052e-06
-2.47240037915e-07
-1.43738850089e-06
-1.4701150778e-07
-1.32910474039e-06
3.6459622884e-09
-1.19770423472e-06
1.78662721559e-07
-1.02720040338e-06
3.04814801685e-07
-8.75382759779e-07
4.19152455878e-07
-7.56500545332e-07
4.57285499485e-07
-5.16047420168e-07
4.0426121892e-07
-2.12752775261e-07
3.11752060025e-07
-1.5231893008e-08
2.23915633997e-07
5.87600093461e-08
1.80278150863e-07
4.45143866033e-08
1.88286697502e-07
1.05007771959e-08
2.02266328217e-07
4.24461651139e-08
1.73514151922e-07
1.44099050413e-07
1.18384951326e-07
2.1650174774e-07
5.644944851e-08
2.70109186197e-07
2.93567698419e-07
-1.64502146945e-07
1.22769762022e-06
-2.73233407947e-07
1.35305027694e-06
-2.58692425918e-07
1.163342051e-06
-3.65324417088e-07
9.73426604634e-07
-5.44971420917e-07
1.23265858867e-06
-6.02390811296e-07
1.22954385663e-06
-6.88092542895e-07
1.22286739958e-06
-7.52703581329e-07
1.15134647657e-06
-8.41402202508e-07
9.98073958911e-07
-8.75639043076e-07
8.86840854561e-07
-9.74272676322e-07
6.77921093207e-07
-1.09271600474e-06
6.64706305402e-07
-1.2206429568e-06
6.74609637786e-07
-1.35586503543e-06
7.6380961601e-07
-1.44361489644e-06
7.62580943767e-07
-1.50306779548e-06
6.668711092e-07
-1.59024720692e-06
6.33056733031e-07
-1.67589371369e-06
6.38735994257e-07
-1.7478081227e-06
6.30713756315e-07
-1.81445974243e-06
6.05193035473e-07
-1.87739997302e-06
5.68450962657e-07
-1.93162418869e-06
5.21098679352e-07
-1.96751134642e-06
4.67094082484e-07
-1.99671388441e-06
4.24912567977e-07
-2.04417196252e-06
3.91110609712e-07
-2.07890550613e-06
3.39377725544e-07
-2.09453010587e-06
2.97270378431e-07
-2.11815070915e-06
2.74058426461e-07
-2.1534541426e-06
2.56432046858e-07
-2.19750676004e-06
2.46980342414e-07
-2.2385192139e-06
2.25761621786e-07
-2.27107269503e-06
2.13630352814e-07
-2.30220209788e-06
2.10425678381e-07
-2.32083765578e-06
1.93746654514e-07
-2.33448753229e-06
1.68083611068e-07
-2.34634112637e-06
1.38497167579e-07
-2.3557628702e-06
1.08009295164e-07
-2.36226397533e-06
7.7467410481e-08
-2.3660415953e-06
4.62007578223e-08
-2.36737725974e-06
1.32101646527e-08
-2.36612688425e-06
-2.19348694357e-08
-2.36173200373e-06
-5.88451984847e-08
-2.35352752123e-06
-9.6843167867e-08
-2.34096200656e-06
-1.35668887598e-07
-2.32360808299e-06
-1.75678118834e-07
-2.30106461929e-06
-2.17567934063e-07
-2.27290637338e-06
-2.62001858259e-07
-2.23872671008e-06
-3.09376517477e-07
-2.19819593914e-06
-3.59848240675e-07
-2.1510457207e-06
-4.13628074329e-07
-2.09693352985e-06
-4.71405498238e-07
-2.03514748605e-06
-5.34742420121e-07
-1.96428444739e-06
-6.06409903586e-07
-1.88213264509e-06
-6.90591490579e-07
-1.78595296465e-06
-7.92827394135e-07
-1.67248634073e-06
-9.19586481438e-07
-1.53505327555e-06
-1.07894598446e-06
-1.36355619538e-06
-1.27230593531e-06
-1.16343203986e-06
-1.46758939782e-06
-9.20887013116e-07
-1.66741308057e-06
-6.84139865216e-07
-1.75616187315e-06
-4.60530619859e-07
-1.77094295323e-06
-2.60360322537e-07
-1.71545390331e-06
-9.65621687177e-08
-1.6011260732e-06
1.05709131417e-08
-1.43619851222e-06
9.22524144678e-08
-1.2793962624e-06
1.79753513613e-07
-1.1147447677e-06
3.76913539624e-07
-1.07258503868e-06
5.67733324579e-07
-9.47361618762e-07
6.56530398568e-07
-6.04862440933e-07