/*--------------------------------*- C++ -*----------------------------------*\
| =========                 |                                                 |
| \\      /  F ield         | OpenFOAM: The Open Source CFD Toolbox           |
|  \\    /   O peration     | Version:  v1806                                 |
|   \\  /    A nd           | Web:      www.OpenFOAM.com                      |
|    \\/     M anipulation  |                                                 |
\*---------------------------------------------------------------------------*/
FoamFile
{
    version     2.0;
    format      ascii;
    class       volScalarField;
    location    "828";
    object      alphak;
}
// * * * * * * * * * * * * * * * * * * * * * * * * * * * * * * * * * * * * * //

dimensions      [0 0 -1 0 0 0 0];


internalField   nonuniform List<scalar> 
6400
(
0.905474911988
1.4694898403
2.34526571082
2.96434695223
3.55430985533
4.13847432934
4.85073896472
5.64340299269
6.16790325932
6.93942867724
8.25241833931
9.23254183931
10.0740756129
10.9990287299
12.1061247589
13.2734838912
14.3510606033
15.369320363
16.2353895649
16.7978326859
17.1675172459
17.695489524
18.5738326301
19.7678093532
21.057303151
22.2406882974
23.2592150547
24.217026971
25.2095062662
26.2519748147
27.2891420605
28.141784727
28.7332210757
29.1733131197
29.5107027948
29.7596479427
30.1710574752
30.7718683479
31.0877758942
31.2034478572
31.6591328934
32.5699952394
33.4678812483
34.0032864056
34.2104168195
34.1839668512
33.9884468976
33.6637768716
33.2228630282
32.6846261685
31.9759187612
30.9005117296
29.4401962214
27.681586305
26.0262988853
24.4831777228
22.4725183935
19.7978096417
17.0061899653
14.5565481882
12.0836354526
9.50351241371
7.15170213247
6.68090776406
9.40971370795
13.8267286342
16.546021216
16.0579543993
13.9187759244
12.2288763551
11.3516168513
11.6212549207
12.2688842303
12.2238878299
14.4275008455
13.9177143499
15.8900747351
9.78489486384
12.8525347888
4.79920019074
3.17553176674
2.56861370892
3.21766710403
4.50357821018
4.52367391013
4.54436961419
4.85504634349
5.38600165866
6.12380652855
7.05206279527
8.15505969496
9.25864808709
10.2491405537
11.2030035607
12.18222136
13.2939987566
14.4662841017
15.5833202204
16.6881065083
17.0922797634
17.2952200075
17.8090698669
18.6747996828
19.8609075026
21.2540838957
22.3899386625
23.383185261
24.3734563426
25.378060203
26.3927296497
27.4055664396
28.3323818636
28.9174952907
29.34976706
29.7137115931
29.8950919881
30.3441754991
30.9698459129
31.2523460763
31.2594068441
31.691025972
33.0143171423
34.1438456803
34.5997873199
34.7571256622
34.6724768414
34.4047690304
34.0302895343
33.4644918306
32.7924189786
32.1360655128
31.4655468189
30.155968829
27.9040701492
26.3366270637
24.6225874339
22.1871012759
19.572110538
16.9624531036
14.3645207038
11.9026255153
9.78107950411
7.52265538738
7.19262610792
9.71191886772
14.9003720094
18.3533519595
16.8823897462
14.5729617655
12.5635844818
11.8661557074
12.3535569194
13.5722716324
13.0434313768
12.9791399472
12.5317229274
11.407383924
9.62005330044
8.12187080436
4.20192002364
3.31954000508
2.95564644321
3.48475156706
3.8491278271
4.49154312324
4.9982749596
5.03683366222
5.27494820272
6.01823461915
7.02350879263
8.13821310967
9.2610567777
10.2941124228
11.2479884547
12.0830958531
13.1000215609
15.6287158633
17.6384827348
18.2171742
17.9081884782
17.1013613165
17.5220708589
18.779385392
20.0119698586
21.1953076328
22.3846052524
23.4687882274
24.4610368857
25.4461811096
26.4541282
27.4388032496
28.4417383413
29.0179149022
29.2579556214
29.8746377028
30.0758234388
30.2773811616
31.0500227625
31.3875083368
31.4629241361
31.9092445504
32.7946202035
33.6643196037
34.1997195789
34.431793038
34.4455598232
34.283340207
33.9647950502
33.4931574711
32.8876025437
32.1445611485
31.1513689781
29.7850461187
28.2620643474
26.6665138262
24.5573095997
22.1111015604
19.5515190988
16.9630685671
14.4217198154
12.022189909
9.72072722096
8.09457120691
8.56818971523
12.0724757109
15.9561762834
17.8118229496
17.7155602204
16.0184937575
14.3000754111
13.6183762849
13.5579084956
12.920577708
12.3752951837
12.4399378572
12.1923340311
11.2908813346
9.70854091269
7.27339920524
7.48696694978
3.42216164095
5.59797288665
3.88498352276
4.06435724108
4.80347469181
11.9712760236
10.4072538414
5.76901097132
5.97307413318
7.00973605711
8.15622250455
9.30103829169
10.3088795088
11.262296699
12.9331715839
14.9982188599
16.734660145
17.3692313768
16.7436256079
16.3832186099
16.940148536
17.751162336
18.7784176407
20.0012215162
21.2684865538
22.4840837802
23.5916418977
24.5674030366
25.5648179677
26.5149621725
27.597346723
28.4373850582
29.2378122442
29.455790304
29.516724185
30.1376040536
30.4270979535
30.7413448401
31.2242842604
31.667093096
32.2109756273
32.9635381208
33.7180183628
34.2491683144
34.5188348169
34.5677694086
34.4322063929
34.1334170977
33.680247761
33.0780146037
32.3071907617
31.3031295418
30.0216710604
28.516082145
26.7524178055
24.6097884945
22.1628864514
19.5952056697
17.0257524613
14.5504392379
12.2848003953
10.4495078546
9.64859163449
10.1767468685
12.0108272867
16.457826045
19.5438757645
19.5098818906
17.7310278546
15.3015356286
13.657330396
12.8634276732
13.0747826513
14.5806559308
14.5852556481
13.3226878996
13.2496801751
16.6050827277
12.9749615689
10.966143278
5.85538900276
7.70171104546
4.75859188627
5.08102015017
6.8034968925
11.8718598773
8.51520547505
6.32240442066
6.50184970924
7.22391712688
8.29066216358
9.44576557472
10.8969497148
13.0868186147
14.185410797
14.7519497597
15.0699400178
15.2603720198
15.6756297878
16.420717988
17.0583178333
17.8087743839
18.8674348552
20.0915475362
21.3677090673
22.6068757373
23.6930818918
24.7670431787
25.6628410982
26.7495074632
27.6361302824
28.9198515019
29.1817818237
29.16747656
29.5767522826
29.7875811225
30.2477492195
30.8155231461
31.3750739164
31.9027629711
32.4795724895
33.1606844313
33.83639541
34.3527349343
34.6475906625
34.7283686515
34.6201570984
34.344027126
33.9108685898
33.3194776269
32.5473920629
31.5525477794
30.3054003162
28.7950612165
26.9619110475
24.7616638802
22.3005963685
19.7545338406
17.264559458
14.9688269915
13.0578468268
11.8315649807
11.5935478179
11.6794921606
12.660983811
16.2732641815
19.7586504317
20.8833347402
19.586713191
16.7420298507
14.1899676907
13.8315033052
16.1437437239
17.0532382016
16.055907609
15.1859784195
17.9204994877
20.9808850235
16.240066329
15.3474899599
10.1287112405
9.31976636302
5.93526699661
6.41931516936
12.1643913542
11.6730355793
7.12276287029
6.96287828187
7.15368292758
7.57981774705
8.51402233477
11.0441744289
14.1351905422
14.6898370986
14.5319632301
13.9743396107
14.012111789
14.6670871503
15.743740583
16.3742240058
16.9718226786
17.8769843472
18.99772898
20.2432720113
21.4583039877
22.7025391645
23.9857677007
24.8625235726
26.0713436347
26.8019573351
28.2756686811
28.7482850099
29.6475439538
29.3228447124
29.1363971348
29.5872659897
30.2733803661
30.954005166
31.5737486422
32.1517738119
32.748800669
33.3930294338
34.0180374525
34.5178259352
34.8275833771
34.9349065104
34.8534931709
34.602702946
34.1942818177
33.6243901673
32.870394199
31.8965766436
30.6656414323
29.1347356835
27.2526634442
25.0318434718
22.6052109186
20.1533430654
17.8419049429
15.8506281865
14.3897613347
13.7131536202
13.8331000162
13.1043774945
14.7046286927
18.4153099767
21.2644065874
22.2789633557
21.1858295168
17.7203608555
15.4256829801
17.1709553983
19.367672923
18.8446093947
17.8784053819
17.9900321129
22.6623866251
24.2882646269
19.2234058756
19.0274216341
12.2759514388
9.29652279986
7.20764355311
6.75731144854
12.153884716
8.77801664736
7.45027829866
7.59489365998
7.76584993751
8.49559521837
9.08064864237
13.7331950637
14.5435478375
14.7087549184
13.675223195
13.0990502493
13.6665333462
15.0564691707
15.6762127855
16.1102889053
16.9756020983
17.9759519575
19.100145169
20.3418844811
21.7022821054
23.0042970082
24.0048891684
25.4945685268
26.1651373483
27.7212565589
28.0746837997
29.2301462619
29.2213634749
29.1304956491
29.0211637241
29.5709395872
30.3715134211
31.1292260855
31.7949409824
32.4112432746
33.0285962192
33.658328739
34.2546733769
34.742052674
35.0615809152
35.1909862802
35.1362934887
34.9150941603
34.5390434781
34.0024382106
33.2806353181
32.3347454232
31.1164572215
29.574279278
27.6823273911
25.4995037586
23.182628748
20.9175616224
18.8678972011
17.1891789652
16.0659328246
15.5522526869
15.1810705751
15.1313300632
16.7263761788
21.284757026
22.9216576952
22.8318364939
21.5304850878
19.1229456153
18.6919141922
21.1217048582
21.4815586132
20.632414896
20.0560257818
22.1050899768
24.9408964806
26.4673815358
21.8321695296
20.6875595994
12.0557270356
9.08272017376
8.39361498652
12.3937622755
12.3257595879
8.01633727026
8.14441352643
8.32518559129
8.42443373144
9.03657288185
13.4365956469
14.4212026089
14.6321666939
14.3217016277
12.6781178211
12.7574095788
14.3385413764
15.15031765
15.3513659633
15.9835308817
16.9965312197
18.1175478106
19.2769108688
20.5645668431
21.7866210434
23.2876847156
24.0659375726
25.5075897372
27.1442903755
27.8594938132
27.8252255897
28.794473121
29.2462075367
28.7441988557
29.034820031
29.7216809106
30.5316832853
31.3198635409
32.029870409
32.6852125809
33.3261341296
33.9573872229
34.5421228588
35.0233219145
35.350975814
35.5004265127
35.4740983889
35.2882801645
34.9536709471
34.4622266663
33.7855601187
32.8785070651
31.6862025679
30.164970309
28.3236167559
26.2602911487
24.1397052885
22.1125911033
20.2791361942
18.7660397444
17.7583593811
17.2652349923
17.1207581657
17.3856853554
17.4039876234
22.0087187472
25.0606172942
24.5812599896
23.6744552948
22.4822987133
23.0203921763
24.1585288111
23.3446146584
22.612800889
22.8354213968
25.2837359877
26.049158711
26.7145493828
23.8248787139
21.6737712607
11.4215666127
9.11922751955
9.08133702209
13.4085524953
11.4500135586
8.73652198911
8.90007796586
9.21448132887
10.2905529538
9.19556266989
14.2038308293
14.9742109149
14.695965047
13.2410216759
12.413119694
12.8860309981
14.3860832489
14.9006061173
15.2462683433
15.9881074405
16.9849213898
18.1668291831
19.4143183496
21.0535843971
22.4477719314
23.2565476971
25.1737137479
25.4431283798
27.2768798538
27.4611384577
28.7006065025
28.2795398074
28.3642353701
28.6861060722
29.209819683
29.9248665425
30.7257678081
31.5284762665
32.2791301681
32.9777346716
33.6480056299
34.2914558078
34.8776918078
35.3603508076
35.6973912755
35.8674971973
35.8734209027
35.7302731242
35.4469580249
35.0132273624
34.3970270126
33.5483656345
32.4134734708
30.9686134987
29.2598025451
27.4072349739
25.538350346
23.6954730511
21.906864514
20.4210275656
19.5758902924
19.401002536
19.5604494075
19.6665501357
19.4977646456
20.2098300854
25.6950079887
26.8721089108
26.3998311335
26.5815993246
27.2125511829
26.5305970459
25.2945439506
24.9825614335
26.012143889
27.3518650367
27.3365111218
26.8266076644
25.8579042865
24.50804851
11.0068378255
9.64518118706
10.2299822999
13.5181577645
9.73041598389
9.76738076998
9.66110994856
9.94959643781
12.8209898121
11.6534498264
15.0376948483
15.276586853
14.8137525831
12.6838162988
12.4838462402
14.0206259133
14.5884276115
14.6789157165
15.2033209365
16.110602557
17.0947646269
18.2213060436
19.3290879823
21.1687695459
23.3153227379
23.2047106141
25.1080792192
26.5597375339
27.478825078
28.3484216787
28.1521106538
28.4418950294
28.1351475121
28.6207089267
29.3760784954
30.1504576728
30.9482181562
31.757936388
32.5430978184
33.2886499878
33.9975634806
34.6635300605
35.2610546503
35.7526771739
36.1036317073
36.2976834185
36.3411628593
36.2492563257
36.0283498637
35.6664598776
35.1305697036
34.3708905902
33.3436223252
32.0528573493
30.5744460337
29.0101380984
27.3647885379
25.5155301056
23.6241802318
22.3277124452
21.9911993582
22.3047202474
22.6151007095
22.5411507626
22.0536945698
20.6352365263
19.8732450134
28.9423548898
31.2460269042
31.646739357
30.9214813551
28.9894467274
27.6621747452
27.716445566
28.9217611976
29.4650977267
29.4571574277
29.3519856764
29.8104086094
30.0619328914
11.1109725108
10.5541163694
13.533727529
13.7777200031
9.9707981984
10.5615264592
10.4225357567
10.8550937707
12.4615157935
15.0222707717
15.9191018157
15.6004679711
15.1196297406
12.7970905265
12.6567232998
14.4916279018
14.7090159399
14.6681702974
15.2140545511
16.2157944552
17.4034279568
18.5566680854
19.4734011015
20.7939368678
23.4527256289
24.7889218394
24.8134800357
26.6381542105
26.5877173596
28.3430417051
28.9622078537
28.4230836621
28.1275222325
28.7267638473
29.567587327
30.3849010379
31.1941387864
32.0129407144
32.8246365501
33.6168676283
34.3747038477
35.0750655464
35.6934155396
36.2014176762
36.572588694
36.7973127497
36.8860790387
36.8543661774
36.7071573311
36.4331127895
36.0027020307
35.3741440052
34.5236199263
33.4854240885
32.3375847463
31.0786826481
29.4955495327
27.4601946446
25.6575015769
25.0294314077
25.5841824525
26.3965144318
26.7606834626
26.4725731064
25.5294895965
23.7240471863
21.2362329516
21.1193080387
32.9676517704
37.4880687945
35.5368923262
32.3201917653
30.73514017
30.7233702039
31.5032334655
32.2426475409
33.0440497315
33.9162671434
34.6971665642
35.4664024375
11.5708018257
11.4772603105
15.2068350808
14.5856201776
12.828648079
11.8220079869
11.4174682636
12.2928860992
12.0625578498
15.9998993597
16.6308681871
16.007086351
15.3038732678
13.495908515
13.4112814197
14.9282393511
14.7621384642
14.7640077147
15.3142931278
16.2356523453
17.5119204255
18.9887418088
20.7193939356
20.8776627324
22.955033427
25.1130454534
24.737080664
26.8314485458
27.9212603423
27.6946313467
28.2295048922
27.9841257934
28.3902328119
29.0279241156
29.8132802843
30.6396010648
31.4665350349
32.300397617
33.1307802635
33.9602027669
34.7747425022
35.5271960403
36.1776880496
36.7086736418
37.1080512359
37.3734417389
37.5176481165
37.5555829244
37.4927447267
37.3226657439
37.0260760182
36.5814017285
35.9961083339
35.3210830418
34.5645046877
33.4958946383
31.8250366735
29.8509764942
28.5409454465
29.1810743104
31.4241933535
32.681088171
33.0863176541
32.7020485249
31.5689321439
29.3792843697
26.0711189584
21.4579344281
28.5607330952
38.7123167999
40.9169337176
37.0465530908
35.0340941832
34.3976859103
34.7902148779
35.8464855704
37.7674266504
39.1662385062
39.3471255705
39.708150391
12.2401999823
12.1675192407
15.0189010044
15.1466970619
15.1962941341
13.0265752278
12.5394029381
15.0554571785
12.5305501457
16.86806062
17.1755581123
16.4203941337
15.478765849
14.1703472585
15.8108750391
15.9582039944
14.9989901594
14.9987920584
15.5501055711
16.3493462194
17.4446527449
18.9689639789
21.873323675
22.8783804211
22.4821803782
25.1239311619
26.2498484497
26.4236399616
27.8573424272
28.5509445331
28.4984255307
28.0267643983
28.5800622753
29.3366382212
30.1126783282
30.9276868943
31.758941229
32.6183848705
33.4820505778
34.3368549809
35.1945396833
36.0092685256
36.712545743
37.2788669781
37.7152726014
38.0335512504
38.246137297
38.363520857
38.3929968015
38.3391259905
38.204411243
38.0049108008
37.7854757559
37.5662146833
37.1508308341
36.0716293071
34.8322669435
34.1036571761
32.940049362
35.0690214821
35.4906659566
34.51074066
32.5532836154
30.3286004481
26.8851712766
22.7678851354
19.2287854826
10.4584122358
9.50064969523
29.6874455097
37.8879585712
36.6853427814
32.5481331679
31.9972565808
32.7915817638
37.8120455251
42.5789601068
44.6288460403
44.9001608699
45.2296708022
12.9613221279
12.9081221415
12.5581425293
15.520410079
15.785566593
13.8658574225
13.5410371427
16.0947333125
13.257733678
17.776394611
17.673226959
16.8464635359
15.7495906511
14.5312197275
16.9464121226
16.6032479671
15.4959050258
15.4170650083
15.8974721332
16.6332541434
17.4983608158
18.8228271624
22.3174680177
23.9257104336
22.8023119255
25.0801558761
26.7154968866
26.0259980399
27.4537336033
28.1718429305
27.8100509099
28.3451705934
28.9915249867
29.6959564612
30.4441687773
31.2634158731
32.1003291667
32.9537721493
33.8535428362
34.7613196746
35.6583524648
36.5235378852
37.2882895719
37.9090889654
38.3992107192
38.7866827984
39.0825543996
39.2870442585
39.4116801745
39.4793880974
39.526760952
39.6359412398
39.8794652735
40.1429778518
39.8165163751
38.7854257883
39.2652405067
32.9464161003
26.5740915152
16.4102570054
7.03921240214e-06
1.42950547865e-09
4.95112332293e-12
5.05152160547e-13
4.00868151728e-14
1.12916470529e-14
1.32911181862e-13
1.35802407831e-12
1.53403160085e-11
4.00674892534e-11
6.65351888527e-08
1.74651614877e-05
0.0159372358054
8.25525576893
39.3625444066
42.6718440361
44.1564203344
49.0870371749
51.6625612363
52.0239580661
13.8591590384
13.9585080829
16.1739340232
16.2155932791
16.2935698171
14.5827306483
14.6072293028
17.0024584817
14.3120403811
18.5779598996
18.1563794168
17.2982250799
16.1010806445
14.9534284741
17.2610245696
16.8789973623
15.9836891927
15.8986480559
16.2925954252
16.9472231658
17.7291684021
18.792360256
21.7820206434
24.70684097
24.9600151259
24.5079326171
26.8840657757
27.8909969451
26.5593660294
26.9370770789
27.739679916
28.5601616225
29.3321705079
30.0695756599
30.8289089983
31.6289598516
32.4752982262
33.3524799531
34.2548373902
35.2085449092
36.1689031898
37.0873595673
37.9080529501
38.592297352
39.158580938
39.6388930061
40.0367418175
40.3393618995
40.5522543822
40.7226412695
40.9631688641
41.4377314107
42.1984873963
42.8046295123
42.0909403894
39.270809751
25.7408536915
1.67898442049e-15
1.84670875163e-18
3.46191873752e-20
5.86818950051e-22
1.69781281949e-24
4.82481342144e-27
8.35166071144e-32
6.53269378729e-32
1.58598782961e-31
1.06908119033e-30
5.00751660797e-30
1.84977913458e-29
1.17550573256e-28
9.20394747744e-29
7.98492484602e-27
4.54475643608e-24
4.56844998838e-22
3.46668181302e-20
7.98293052518e-18
1.34377841164e-13
45.9976860694
56.2811053228
54.1654445713
14.7060043313
14.9006330861
17.8095879841
16.9507338753
16.5010329688
15.2951198451
15.6332858475
17.788993431
17.7687282929
19.578646521
18.7109125505
17.8470422132
16.5423042528
15.5134266925
17.5944885748
17.0812011908
16.4383204317
16.3829225245
16.698413974
17.2641852948
18.0010220168
18.9878825065
21.299706181
24.9346182171
26.2660105866
24.3134508462
26.3500785405
27.9684609161
28.0781609205
27.2898605189
27.7826714875
28.7487216124
29.6647565338
30.4782085864
31.2155224782
32.0248315441
32.8756152827
33.7794924676
34.7118433113
35.6931350827
36.7150474907
37.7044848654
38.5802187095
39.3194427232
39.9772208908
40.6028752427
41.1508539423
41.5453677264
41.78440113
42.0284940567
42.4907328289
43.348191574
44.6227686974
45.2111857881
36.2249336535
12.8977223856
9.28462723246e-22
3.75982596733e-24
1.08728080638e-25
1.58288154677e-27
1.28605780728e-30
2.14591069636e-33
1.51266229815e-34
0
0
0
0
0
0
0
0
2.10385529472e-38
7.09586836102e-36
1.06139065937e-33
6.1578487047e-31
8.60100340044e-28
4.65766316631e-23
7.07322378972e-19
5.51455619558e-12
61.7318673804
15.3950829013
15.611395198
19.9116982775
17.5288972857
16.471386326
15.9188430865
16.3749170427
17.9243925967
19.3473530794
20.7168069404
19.4185940729
18.5311247454
17.2316658403
16.3543710976
18.1325585279
17.4289528309
16.9623942744
16.9090416668
17.1408168342
17.6170883558
18.2773194058
19.189309959
21.0900937076
24.7820836841
27.2200523312
26.6166551064
25.8370744332
27.3106590281
27.8847104756
27.3798551674
28.1823559016
29.163155206
30.1252984252
30.9339609811
31.6962135668
32.4598860302
33.3251218846
34.2382301712
35.2077532223
36.2275133777
37.2949175558
38.3598799217
39.3260735893
40.1239847684
40.8732298884
41.67121597
42.4026279652
42.8788841181
43.1182110056
43.4148359106
44.0836600323
45.2882126557
46.699669994
35.6916107967
1.16004707371
1.34420118645e-24
4.40839461511e-28
1.7825727137e-29
2.43048423379e-31
6.66504830454e-34
0
0
0
0
0
0
0
0
0
0
0
0
0
2.71081730694e-37
2.69378653349e-36
5.905363741e-35
2.86342921847e-33
1.59012795014e-29
1.32356463674e-20
2.55138447807e-25
15.9246335213
16.132755845
21.9245696611
17.9705297084
16.6601884531
16.4861543921
17.1707433676
17.4031183606
20.2793375014
21.5298145232
20.0959174956
19.2253994072
18.107710403
18.16332282
18.886326044
18.0152769039
17.6771499322
17.6234142884
17.6896774139
18.0543275968
18.6048537482
19.4330042625
21.057425386
24.5981879765
27.5969934354
28.2089031826
25.7907274598
26.3590931539
26.8172963271
27.4530141125
28.4588515522
29.6007428507
30.5792443348
31.4364885135
32.2265033776
33.0449740217
33.8400199913
34.7586777225
35.7474847998
36.7917221586
37.935433884
39.0900371352
40.136014968
40.9492605372
41.7384277334
43.0344853863
44.6020669476
45.2743774786
44.8716368984
45.0250013441
45.8188973603
47.1520580392
34.8973088272
7.11327226367e-19
1.07206331034e-23
4.80944456884e-35
4.8600033173e-32
7.93018608107e-34
0
0
0
0
0
0
0
0
0
0
0
0
0
0
0
0
0
0
4.18812775106e-36
2.83613093787e-35
5.23006059035e-33
97.6823243437
16.3688868707
16.5435935387
21.7899648674
17.4917569354
16.8997118869
16.9699672417
18.0665413319
17.4659122669
21.0729567332
22.2769907329
20.7291210504
19.8610648482
18.7899610253
20.2906146133
19.9164011249
18.7991008335
18.4976358266
18.668786514
18.4573882549
18.6585006695
19.0297913673
19.7241356754
21.1611075369
24.4027473632
27.433814623
29.2630425188
28.2246832155
27.5236712457
27.5570151405
27.6355930691
28.6967076874
30.1400167616
31.0129142607
31.9516432785
32.9490087152
33.6429712493
34.4418279842
35.3739432727
36.3906248917
37.4563642067
38.5922835299
39.8198450618
41.0064863357
42.1297935976
43.3487748259
44.9742525582
46.4155657936
46.8337491331
47.0229815124
47.3968217385
48.0849229883
38.4119192141
3.23483867155e-18
2.95276173199e-23
3.88088109418e-27
5.27098038171e-29
0
0
0
0
0
0
0
0
0
0
0
0
0
0
0
0
0
0
0
0
0
0
1.2886801574e-35
9.37970520178e-25
16.8631441182
17.0134918972
21.455526198
17.2161735405
17.2013009117
17.359284825
18.8354741636
17.9503843944
21.7741295745
23.0074491818
21.3487984863
20.483560911
19.3510756833
21.0612042542
20.862918142
19.6387467196
19.3007777894
19.5655250418
19.371031632
19.477153658
19.646767253
20.0747545505
21.4236492816
24.3416464137
27.1136158724
29.5284761446
29.3714105439
28.1142445338
27.1787390673
28.0706958488
29.1203940598
30.5353771416
31.742327654
32.8228416307
33.7530974326
34.3543976084
35.1282229006
36.074262436
37.1172275058
38.2278851739
39.3910796234
40.7062238657
42.1711052599
43.7765081803
45.0073374956
45.8910029672
47.0793402483
48.1517533397
49.7870614804
51.0882546769
43.2149071188
2.94756709675e-17
3.91380638746e-23
6.74915845509e-27
1.38428715555e-29
3.35162548598e-31
1.12502690836e-33
0
0
0
0
0
0
0
0
0
0
0
0
0
0
0
0
0
0
0
0
0
2.16567034654e-36
2.8653796763e-36
17.5869741491
17.7367094992
21.1694290611
17.511330416
17.7465905694
17.8381560592
18.883319966
18.6637756401
22.2919165162
23.7002951223
21.9929999794
21.1435397487
20.0135385528
21.7496539877
21.7024550113
20.5452934818
20.145455293
20.4293920387
20.2611129921
20.4343981813
20.5205690457
20.5789803652
21.8785537309
24.4841883621
26.9385882648
29.5590938672
29.9035794691
28.9152635361
27.698292901
28.2600175286
29.6314237611
30.7107251754
31.8211228535
33.0884379292
34.6285248106
35.3604136333
36.0563295696
36.8869674012
37.9004791469
39.086468244
40.3614800242
41.809071904
43.7967346325
45.5639733164
46.2317212439
47.0182547884
48.7544765582
52.1033697535
56.9280864814
47.3661446204
8.42129099392e-18
1.39892429201e-24
5.78907585372e-29
1.89804798229e-32
1.19092331926e-34
2.41390505539e-34
3.70685741203e-35
0
0
0
0
0
0
0
0
0
0
0
0
0
0
0
0
0
0
0
0
0
1.60071051157e-37
7.26835608263e-37
18.6815253527
18.794919172
21.4882461798
18.4290844134
18.869837678
18.67624839
19.2195240159
19.9348907455
22.3894551457
24.2287624162
22.6903536007
21.8639433366
20.7724315913
22.5324912949
22.5640815229
21.5988112782
21.1554561512
21.4250035344
21.1566147745
21.4801732034
21.6864406056
21.2931167659
22.4176247612
24.8362828896
26.9664471879
29.3904762851
30.1242491657
29.5984649164
29.5482599847
29.0702591338
29.9625315304
31.3699898744
33.0132161988
33.6608336038
34.9354749903
36.3461837032
37.1086656658
37.9893497744
38.9173717641
40.0341202936
41.4425392426
43.5043838217
46.019403591
47.1551466285
47.435690488
48.8612719846
53.075967718
59.9264844581
53.6831983244
26.5662291509
2.11944581612e-26
1.97879166101e-31
1.35395448569e-33
0
0
0
0
0
0
0
0
0
0
0
0
0
0
0
0
0
0
0
0
0
0
0
0
0
0
0
20.2117141681
20.1070877499
22.3175330757
20.25457592
20.759473126
19.909361165
20.1517362318
21.7670396249
22.6381644577
24.8519713837
23.4910070909
22.6543134043
21.6023624873
23.3498137092
23.419963207
22.7540786127
22.6134906568
22.7195009024
22.1440618918
22.6104924809
23.1321573616
22.2966923535
22.8480847241
25.2817043629
27.2052321201
29.2504686247
30.2533393753
29.7657343752
30.7017989971
30.5982793757
30.9410590765
31.1431156213
32.8220095652
34.7701364452
35.8613404429
37.1036775818
38.1602655079
39.0858329515
40.1347891
41.2754118118
43.0300922951
45.9772524964
48.220820844
48.9052720288
49.7394607299
53.0666777638
60.1489612238
56.7152153694
32.6870568536
1.89143016494e-28
3.30661914563e-31
1.5140587463e-33
0
0
0
0
0
0
0
0
0
0
0
0
0
0
0
0
0
0
0
0
0
0
0
0
0
0
0
0
21.8236892573
21.3330158748
23.1998365894
22.6655822243
22.4199691972
21.3214231262
21.1635443377
22.8699388365
21.9666919216
25.3391157681
24.377121912
23.5056872193
22.4915830657
24.1713800339
24.2109442033
23.7178328648
24.5909074314
24.26651644
23.2405145736
23.8383768072
24.4276938575
23.5661219121
23.0342743262
25.2622549592
27.3575722476
29.1393722373
30.2774798114
29.8148215147
31.078188928
31.8451478347
32.3036389787
31.8890121132
32.9676708467
34.7267093343
36.7365276188
38.2892920906
39.4349946974
40.3446959929
41.3829708881
42.8644109857
45.6219992062
48.7846165781
50.6204069885
51.7164216359
54.0638428181
58.8865901335
56.1684804883
31.9503480728
5.09283956292e-28
7.37295975933e-31
2.58215274451e-33
0
0
0
0
0
0
0
0
0
0
0
0
0
0
0
0
0
0
0
0
0
0
0
0
0
0
0
0
0
22.6068281155
22.1680698827
23.7456550051
23.6778161952
23.4408810094
22.6365016276
22.3007547746
24.1898132645
22.9793456232
25.9544481268
25.2707441231
24.3901077491
23.4341036669
25.009783736
24.9956713373
24.5111704726
25.538259937
25.3492459784
24.2768211759
25.0175824004
25.1468039096
24.356190398
23.9677017071
24.1951721821
26.7841716279
28.5666765354
29.9945603067
29.7096449319
31.0942338416
32.3584955127
33.4190738208
33.6029211521
33.3683703266
34.758468072
36.9401613758
39.1367388642
40.8221801471
41.9870355714
43.0158721589
45.3690434059
48.8488412901
51.7276651237
53.3969946484
55.3700182983
59.2561431093
55.9796524566
31.1851223486
18.6423565592
2.42357893678e-30
6.90247828293e-33
0
0
0
0
0
0
0
0
0
0
0
0
0
0
0
0
0
0
0
0
0
0
0
0
0
0
0
0
0
0
22.656138391
22.6542515541
24.0470329132
23.8576753386
24.0590942699
23.6346433717
23.274055158
25.48442252
24.5905963191
26.7264002115
26.2097854777
25.2916679535
24.4248241767
25.8802333937
25.8339585457
25.4142278738
26.3161229455
26.2753116461
25.3348234109
25.9958160445
25.0496085061
25.0658669316
24.9359303526
25.1804375859
25.9700259298
27.0622903464
29.0342319334
29.3532040534
30.6114993745
32.3140367823
33.8159880112
34.9022789148
34.8318757391
35.5071307458
37.1351499486
39.3354879368
41.7336895965
43.6971482911
45.3657706353
48.607578246
52.1420358426
54.586437904
56.002358277
57.963753754
53.7272217883
35.6998644995
38.2945191086
8.41843646182e-30
1.88580851835e-32
0
0
0
0
0
0
0
0
0
0
0
0
0
0
0
0
0
0
0
0
0
0
0
0
0
0
0
0
0
0
0
22.8338698944
22.962825974
24.277869343
22.9744938012
24.2880436312
24.1532370644
23.8984208937
26.0555407937
25.3879366814
27.4866629194
27.1621907525
26.1764222273
25.4685449722
26.7698898377
26.7021970955
26.44136791
27.1907775883
27.3098525188
26.5205198399
27.3512092446
26.3398515473
26.6008339779
26.144180772
26.4453693491
27.6593022028
28.2845349146
28.5348662522
28.9027365227
30.0443180047
32.1125457158
33.6773959054
35.0552549302
36.0091066888
36.5375560387
38.3100580907
40.0098546051
42.4572158795
45.2629514623
48.2455329518
52.1061885201
55.3179925381
57.0967852505
56.9396872506
54.3943707905
53.0513438016
32.8835102203
7.06413070301e-29
1.6081839213e-31
0
0
0
0
0
0
0
0
0
0
0
0
0
0
0
0
0
0
0
0
0
0
0
0
0
0
0
0
0
0
0
0
23.4331192144
23.5273955895
24.5120957735
23.2896977149
24.4691613084
24.401351911
24.3007277786
26.2092779678
25.907711873
28.0246531863
28.0683346911
26.9838037939
26.5498977499
27.6277838668
27.5143700548
27.4242186317
28.0268113884
28.4192907992
27.7524448294
28.7334043376
28.0535334891
28.5533759435
28.4176498232
27.4378776443
28.4231553834
29.3194188701
29.5336319507
28.5447186959
29.3883370384
31.8343542021
33.6409735744
34.6158220729
35.7344326383
36.7391064591
38.6217384079
40.6083597269
43.2698212229
46.8251952726
51.3059729954
55.7276405645
58.3005653537
58.774258642
56.8489169779
51.9350002894
33.2059221684
41.7956971244
1.12064577855e-30
4.54424354699e-33
0
0
0
0
0
0
0
0
0
0
0
0
0
0
0
0
0
0
0
0
0
0
0
0
0
0
0
0
0
0
0
0
24.2003547151
25.2043305878
24.8734079979
24.1228077981
24.8976161343
24.684329707
24.6636779406
26.310236306
26.3578909198
28.2094319853
28.9181300057
27.6727450977
27.4817402053
28.3021287226
28.2439666356
28.1425721503
28.3300999205
29.4047341445
29.0226198307
29.9232128669
29.8797900076
29.8430764718
29.7659882081
29.4281035266
28.7764827297
29.4330775481
30.3127382515
27.9235221423
28.6435987697
30.9640306368
33.4748734259
34.8974995063
36.1119131961
36.5240579759
38.2896297264
40.6842394518
43.7058274955
48.256885026
54.3767861211
59.2518926194
60.8658131172
57.6223520728
55.9293399263
57.4523148427
38.8309520737
7.59583874278e-30
1.93864074727e-32
0
0
0
0
0
0
0
0
0
0
0
0
0
0
0
0
0
0
0
0
0
0
0
0
0
0
0
0
0
0
0
0
0
24.7293266672
25.7792143684
25.4317626306
24.8396702436
25.447301223
25.106715526
25.0660125205
26.4606663726
26.7712725262
28.1147869705
29.6392956571
28.2932627183
28.0011115411
28.8139006738
28.9879838957
28.7482943546
28.5350655846
30.0797544599
30.2885714087
30.9371653954
31.1249115291
31.3700315158
30.376133448
30.4080389118
29.9368875062
30.8692731807
31.4578077545
29.2409441569
27.873986145
29.6529814055
32.4424425524
34.7284755003
36.12744723
36.7595224981
37.6202714794
40.0848646685
43.4224897979
49.2820265199
57.2989534796
62.8299675703
62.3376601194
57.9939533629