/*--------------------------------*- C++ -*----------------------------------*\
| =========                 |                                                 |
| \\      /  F ield         | OpenFOAM: The Open Source CFD Toolbox           |
|  \\    /   O peration     | Version:  v1806                                 |
|   \\  /    A nd           | Web:      www.OpenFOAM.com                      |
|    \\/     M anipulation  |                                                 |
\*---------------------------------------------------------------------------*/
FoamFile
{
    version     2.0;
    format      ascii;
    class       volScalarField;
    location    "828";
    object      p;
}
// * * * * * * * * * * * * * * * * * * * * * * * * * * * * * * * * * * * * * //

dimensions      [0 2 -2 0 0 0 0];


internalField   nonuniform List<scalar> 
6400
(
0.143707203438
0.143710546842
0.143720137916
0.14373900895
0.14376731447
0.143805089788
0.143852298685
0.143910043915
0.143979561727
0.144062857415
0.144166319785
0.144293385649
0.144441574448
0.144610800954
0.144803024241
0.145020950739
0.145266530916
0.145539932099
0.145838985593
0.146158256195
0.146492429041
0.146843405291
0.147219077128
0.147627541822
0.148073716345
0.148557502996
0.149075490504
0.14962500415
0.150205487224
0.15081741753
0.151461045207
0.152134268432
0.152831075598
0.153545308175
0.154273970454
0.155014494179
0.155767319457
0.156537660186
0.157323899712
0.158117500876
0.158918909692
0.159738982137
0.160582921909
0.161442608386
0.162306672891
0.163166768811
0.164016454818
0.164850538236
0.165664226273
0.166453233381
0.167213814481
0.167940110513
0.168622772281
0.169250917207
0.169821627416
0.170337700528
0.170794535488
0.171183109504
0.17150123768
0.171755595469
0.171952804461
0.172097297208
0.172194525749
0.172261046166
0.172317563676
0.172378226139
0.172439990354
0.172488822466
0.172518574464
0.172532602301
0.172535361459
0.172529862713
0.172517877138
0.172501948327
0.17248321047
0.172463707675
0.172445051817
0.17243167667
0.17242246855
0.172418463499
0.143702383442
0.143705954474
0.143714726604
0.143733149142
0.143762933962
0.143802146178
0.143849821008
0.143905811934
0.143973281037
0.144056309908
0.144159414161
0.144285489485
0.144433967634
0.14460411146
0.144796467659
0.14501303033
0.145257811715
0.145531836319
0.145832110428
0.146151808825
0.146484087944
0.146833062339
0.147208219671
0.147616796694
0.14806347755
0.148548007031
0.149066375554
0.149616523559
0.150197955011
0.150810642488
0.151454463011
0.152128181095
0.152825954003
0.153540367216
0.154269173622
0.155010032268
0.155762945755
0.156533910052
0.157321422162
0.158116154874
0.158917567621
0.159738541376
0.160585508615
0.16144754354
0.162312951373
0.16317452127
0.164025802837
0.164861777943
0.165677302889
0.166467050867
0.167227234203
0.167954672861
0.168641299162
0.169271526116
0.169843845113
0.170362219121
0.170817826698
0.171203866024
0.17152133439
0.171774601252
0.171969179555
0.172112521954
0.172209962569
0.172277676845
0.172335717075
0.17239694628
0.17245850025
0.172504727527
0.172531401623
0.172542923054
0.172543532288
0.172536045452
0.172521849079
0.172503237445
0.172482646104
0.172461899561
0.172443233243
0.172429118596
0.17241954819
0.172416217806
0.143688727698
0.143694578336
0.143702641878
0.143719641304
0.143748441704
0.143791810909
0.143843040121
0.143897450776
0.143961862784
0.14404317159
0.144145422384
0.144270962858
0.144419748818
0.14459071535
0.144783107886
0.144996354305
0.145238722906
0.145517024089
0.145820122488
0.146138362561
0.146466622365
0.146810803265
0.147185168988
0.147595997374
0.148043693141
0.148528281321
0.14904788281
0.149599834925
0.150182876809
0.150796905347
0.151441642741
0.152116518485
0.152816312142
0.153530670331
0.154258592643
0.155001043586
0.155754593623
0.156525427033
0.157314529206
0.158112703433
0.158920037421
0.159745686546
0.160593537006
0.161456235156
0.162323578084
0.163187699561
0.164042224454
0.16488168478
0.165700847677
0.166494763271
0.167259133429
0.167988752145
0.168674881112
0.169308466139
0.169887250325
0.170407460838
0.170861376719
0.171245628261
0.171561355706
0.1718124502
0.17200490681
0.172145284403
0.17224219828
0.172313754895
0.172377846011
0.172440860751
0.172496899451
0.172536489689
0.172557974185
0.172564860763
0.172561072495
0.172548785506
0.172529836318
0.172506995842
0.172482880573
0.172459600885
0.172439474197
0.172424041175
0.172414039526
0.172410221601
0.143668910596
0.143674974246
0.143682063851
0.143697813176
0.143723299933
0.143766632134
0.143830409303
0.143885097545
0.14394492713
0.144023242564
0.144124054207
0.144249298585
0.144398784371
0.144569861115
0.144762104824
0.144979128991
0.145225186362
0.145500644238
0.145795528667
0.146103183844
0.146427772053
0.146775505136
0.147152410523
0.147564097143
0.148013012525
0.148499116407
0.149020618769
0.149574807988
0.150160170631
0.150776112062
0.151422906161
0.152099452683
0.152800969027
0.153518124984
0.154244266651
0.154984721084
0.155741690918
0.156513913289
0.157302807002
0.158105568766
0.158920987608
0.159753320684
0.160604687835
0.161469923262
0.162340524558
0.163208714831
0.16406791958
0.164912405312
0.165736848182
0.166536208529
0.167305560242
0.168039008834
0.168728886011
0.169367927422
0.169951284898
0.170473013598
0.170926637402
0.171309499772
0.171622961312
0.171871115511
0.172060258984
0.172198709093
0.172299256225
0.172378969237
0.172447775172
0.172507020864
0.17255645816
0.172588179476
0.172601107661
0.172599861285
0.17258844347
0.172568696743
0.172542745731
0.172513012201
0.172482354441
0.172455051172
0.172432801242
0.172414035663
0.172400807711
0.172395302145
0.143637703502
0.14363933359
0.143648028359
0.143664314561
0.143692644851
0.143733805915
0.143792836748
0.143852194384
0.143915601602
0.143994465918
0.144094151231
0.144219324332
0.144370109681
0.144546523605
0.144745938932
0.144963470421
0.145202478677
0.145465047147
0.145749428704
0.146054377618
0.146380319391
0.146729698963
0.147108394505
0.1475218867
0.147972512117
0.148460547376
0.148984175619
0.149541181914
0.150129559121
0.150748566421
0.151397581584
0.152077548422
0.152782887194
0.153498634563
0.154224164304
0.154964102152
0.155720403599
0.156495615256
0.157289061329
0.158098162842
0.158921810331
0.159761776373
0.160618659886
0.161488401241
0.162363872431
0.163237653823
0.164103051585
0.164954122657
0.165785417535
0.166591728821
0.167367710803
0.168107213795
0.168803129035
0.169448478522
0.170036791061
0.170561002771
0.171015150141
0.171397119501
0.171708611166
0.171954316681
0.172141795901
0.172281803664
0.172388802054
0.172475212089
0.172543169393
0.172598638546
0.172641090121
0.172662592565
0.172663173043
0.172649210091
0.172625939567
0.172595499103
0.172559248314
0.172518911926
0.172479769528
0.172446300466
0.172417773302
0.172391344109
0.172374222025
0.172367854286
0.143581464331
0.143582015792
0.143595863509
0.143613053047
0.143644635598
0.143688375716
0.143744092134
0.143804390607
0.143872988679
0.143954377008
0.144052798962
0.144178626485
0.144338294033
0.144523507148
0.14472222042
0.144933521982
0.14516265836
0.145416194303
0.14569563847
0.145998428004
0.146322807826
0.146672669726
0.147053387986
0.147469294653
0.14792225593
0.148412156081
0.148938615894
0.149498700063
0.150091171869
0.150714068636
0.151367440971
0.152049655979
0.152755295673
0.153474568139
0.154198002237
0.154935195175
0.155693555122
0.156473653871
0.15727331804
0.158090005066
0.158922469794
0.159771064006
0.160635299091
0.161511580305
0.162393727455
0.16327474713
0.164147937313
0.165007210821
0.165846995311
0.166661925
0.167446402898
0.168194157199
0.168898180714
0.169551116367
0.170145345301
0.170673283846
0.171129411974
0.171512119276
0.171823637973
0.172069638918
0.172259136816
0.172404299072
0.172518782402
0.172606465019
0.17267193987
0.172721949756
0.172755807491
0.172764158175
0.172747669221
0.172715348122
0.172675545895
0.172630309769
0.17257903808
0.172524544084
0.172473633164
0.172429632708
0.172389745699
0.172354426446
0.172333221771
0.172324174164
0.143496040833
0.143502902389
0.143525013153
0.143550042791
0.143578164465
0.143622875064
0.143680680198
0.143743780206
0.143816403089
0.143901017048
0.144003874279
0.144133955594
0.144301611165
0.144486156223
0.144680321269
0.144883693455
0.145106578582
0.145357527254
0.145634763311
0.145932729156
0.146254566035
0.146605259078
0.146987822432
0.147405756155
0.147861448465
0.148355344879
0.148883447202
0.149447154123
0.150044566784
0.150674464989
0.151332105726
0.152014989832
0.152721699916
0.15343782285
0.154161418362
0.154900180785
0.155662525769
0.156448642633
0.157255665029
0.158080917134
0.158922966577
0.15978128422
0.160654596203
0.16153942515
0.162430172132
0.163320217701
0.164202926248
0.1650721422
0.165922206402
0.166747635836
0.167542669752
0.168300887427
0.16901506369
0.169677262309
0.170279140522
0.170813036302
0.171273968556
0.171660901917
0.171976613345
0.172227420714
0.172423066422
0.172575374819
0.172693703984
0.172780570011
0.172847707458
0.172891109954
0.172908169814
0.172895369715
0.172855605912
0.172799916662
0.172738724101
0.172673624502
0.172602300048
0.17252949564
0.172461330121
0.172400026611
0.17234428185
0.172300396064
0.172275332873
0.172263663649
0.143394598988
0.143407530143
0.143432701701
0.143467918124
0.143499132015
0.143546171733
0.143602792264
0.143669363633
0.143747101165
0.143830234164
0.143942138497
0.144085501487
0.144251778661
0.144432983095
0.144620573088
0.144817035611
0.14503901381
0.145290351633
0.14556289519
0.145856086778
0.146175961505
0.146527002876
0.146911216124
0.147332206672
0.147791556816
0.148288822678
0.148821146138
0.149385600717
0.149990266385
0.150629578666
0.151289631157
0.151970676436
0.152676119974
0.153391149243
0.154115038561
0.154859107154
0.155627720818
0.156420800286
0.157235995576
0.158070720878
0.158923281809
0.159792528118
0.16067660765
0.161571971195
0.162473323741
0.163374325377
0.164268448059
0.165149535431
0.166011883323
0.166849923436
0.167657761601
0.16842877922
0.16915540692
0.16982921348
0.170441583678
0.170985211869
0.171455797458
0.171852601912
0.172177991888
0.172437764942
0.172641411619
0.172799073273
0.172918631528
0.173006908017
0.173071072878
0.173110982716
0.173105141687
0.173061654892
0.17299112119
0.172905730091
0.172817065744
0.17272596517
0.172630103407
0.172532839007
0.172438488429
0.172351648382
0.172278703267
0.172226952182
0.172199540134
0.172187703515
0.143282258141
0.143298720154
0.143324445714
0.143355621297
0.143394625718
0.143450659679
0.143508347997
0.143577273806
0.143663806047
0.143753107059
0.143863677139
0.144016362789
0.144185861747
0.144361777858
0.14454367599
0.144740069697
0.144961671289
0.145210177306
0.145478364252
0.145768903189
0.146087455705
0.146438070177
0.146822470712
0.147245631371
0.147712521907
0.148212174051
0.148749197389
0.149321484354
0.149928436285
0.150569870048
0.151235997413
0.151922739117
0.152619832869
0.153331828838
0.15406118539
0.154812615156
0.155588831594
0.156389906194
0.157214141928
0.158059259555
0.158923381246
0.159804869265
0.160701412005
0.161609299411
0.162523346478
0.163437394236
0.164345041377
0.165240180582
0.166117087794
0.166970121398
0.167793267464
0.168579714934
0.169321618521
0.170010359809
0.17063758412
0.171196749091
0.171684075162
0.172097889346
0.172438027195
0.172709182045
0.172922131508
0.173085781442
0.173207142199
0.173291340138
0.173342267052
0.17337085988
0.173355058593
0.173272167485
0.173160658429
0.173036391818
0.172911306057
0.172788508744
0.172664673697
0.172534341971
0.172399639622
0.172277859234
0.172187444838
0.172130903162
0.172103135217
0.172093294412
0.143157106148
0.143175743673
0.143205666841
0.143236029451
0.143278286923
0.143335079972
0.143395695132
0.143465369001
0.143553055639
0.143660062647
0.143776503976
0.143930033864
0.144100931367
0.144273700764
0.1444503534
0.144649806392
0.144874804831
0.145118620287
0.145381581565
0.145669887803
0.145988295267
0.146339690358
0.146724747086
0.147147144792
0.14762063282
0.14812904493
0.148664176149
0.149243398693
0.149856090945
0.150502309157
0.15117231275
0.151858182941
0.152555328589
0.153266223478
0.154000723645
0.154760450806
0.155545484173
0.156355677424
0.157189917754
0.158046381514
0.158923187583
0.159818331614
0.160729085466
0.161651519564
0.162580449595
0.16350982711
0.164433375657
0.165345062406
0.166239148063
0.167109911005
0.167951242253
0.168756238205
0.16951703844
0.170225336514
0.17087363287
0.171456366861
0.171969417345
0.172407668865
0.172766061976
0.173051205219
0.173280324414
0.173455837517
0.173578601072
0.173649273387
0.173673344648
0.17366326941
0.173625588223
0.173535761943
0.173370680261
0.173190814873
0.173018908536
0.172863027496
0.172711472751
0.172536630968
0.172336894904
0.172164960547
0.172057266971
0.17200198031
0.17197672429
0.171970670407
0.143013681768
0.143031442418
0.143064147521
0.143099964396
0.143151175086
0.143203183544
0.143265132594
0.143337923401
0.143418683364
0.143535768671
0.143667392317
0.143822310401
0.143994100114
0.144168191882
0.144344656904
0.144545367516
0.144772213087
0.145013348199
0.145272536307
0.145557796496
0.145875431802
0.146229132131
0.14661966704
0.14704254663
0.147512239771
0.148033359565
0.148577367185
0.149157164971
0.149772295691
0.150415143932
0.151092355144
0.151782193989
0.152478964818
0.153193145331
0.153934271619
0.154702706824
0.155497387667
0.156317808839
0.157163129665
0.158031956067
0.158922608883
0.159832888256
0.160759672906
0.161698751942
0.162644877742
0.16359209196
0.16453425018
0.165465384371
0.166379706955
0.16727139985
0.168134316875
0.168961670678
0.169746032195
0.170480066912
0.171157657838
0.171773884496
0.172322475643
0.172792614322
0.173173348184
0.173479664888
0.173745366213
0.173945176255
0.174068079773
0.17411193793
0.174087075062
0.174010790403
0.173906971781
0.173799841637
0.1736195163
0.173369485463
0.173134712246
0.172950969048
0.172786194777
0.172553364178
0.172236693884
0.171980730837
0.171860711266
0.171823017508
0.171808662979
0.171813980608
0.14284772273
0.142861978642
0.142888652224
0.14293393203
0.142996352375
0.143049651146
0.143113604998
0.143193670099
0.143273620372
0.143388115833
0.143531622006
0.143690969521
0.143863200193
0.144040384765
0.14422467887
0.144428818923
0.144654975626
0.144893693553
0.14515088163
0.145433392365
0.145747591931
0.146099773045
0.146500136783
0.146935075447
0.147400490151
0.14792227995
0.148475458126
0.149054590326
0.14967922411
0.150328172936
0.150999563062
0.151687431864
0.152388061755
0.153111347542
0.153861306836
0.154639107305
0.155444203511
0.156275939006
0.157133538356
0.158015862609
0.158921549888
0.159848471435
0.160793184041
0.161751105058
0.162716887469
0.163684704563
0.164648575795
0.165602560848
0.166540744815
0.167457176179
0.168345763459
0.169200167392
0.170014031645
0.170781712187
0.171498486455
0.172158419093
0.172752380809
0.173267433394
0.173678560091
0.174015574504
0.174371955178
0.174622011353
0.174746314984
0.174746565395
0.174646104135
0.174471412667
0.174253835358
0.174068929849
0.173862073617
0.173549188513
0.173241874026
0.1730546742
0.172938167438
0.172639676026
0.172063098279
0.171641434059
0.171547009794
0.171582496429
0.171596019558
0.171636295021
0.142658792203
0.142670115303
0.142687768463
0.142738283695
0.142802408159
0.142864473078
0.142933319388
0.143021608233
0.143110172266
0.14322453695
0.143373682565
0.143536478781
0.143708986449
0.143885570156
0.144080298722
0.144295393404
0.1445218241
0.144758846252
0.145015455145
0.145296956123
0.145607702691
0.145953872629
0.146355811338
0.146811984069
0.147284962994
0.147796974509
0.148361775897
0.148948104263
0.149566353231
0.150220030908
0.150894802324
0.151582791759
0.152287751305
0.15302012085
0.153780473959
0.154568956959
0.155385452551
0.156229534343
0.157100697259
0.157997927327
0.158919994368
0.159865038931
0.160829571023
0.161808635904
0.162796712803
0.163788183224
0.164777325465
0.165758179855
0.166724556403
0.167670285798
0.168589464257
0.169476692378
0.170327496494
0.171138365011
0.171904408614
0.172615180748
0.17326825577
0.173871772145
0.174327270645
0.174707854809
0.175351231533
0.175660637952
0.175740508994
0.175632755271
0.175382841103
0.175038005085
0.174629646926
0.174283306802
0.174010613932
0.173658951193
0.173223357403
0.173092688515
0.173251053159
0.172895306208
0.171793051216
0.171017409172
0.171061667695
0.171311569588
0.171336785344
0.171470459182
0.142448011782
0.142461051129
0.142484096546
0.142523734037
0.142582523504
0.142650572401
0.142725668966
0.14281886132
0.142921030093
0.143039281743
0.143193220069
0.143359358927
0.143533769832
0.14371065791
0.14390932187
0.144134868998
0.144366454745
0.144606014018
0.144864085083
0.145146389473
0.145456081176
0.145797116043
0.14619493491
0.146664005115
0.147153978824
0.147664825227
0.148233590991
0.148829633706
0.14944551059
0.150097288419
0.150769440196
0.151459860831
0.152175898983
0.152919416206
0.153691069341
0.154491378823
0.155320588646
0.156178243889
0.157064076757
0.157977623351
0.158917750782
0.159882618386
0.160868853945
0.161871358486
0.16288449638
0.163902963788
0.164921446087
0.165933905347
0.166933631953
0.167914089695
0.168869731267
0.169796825243
0.170693705904
0.171558683119
0.172381797751
0.173145291233
0.17390725438
0.174724183697
0.175077184233
0.174995799062
0.175189096142
0.175417015129
0.175493705349
0.175399981266
0.175180274374
0.174876759592
0.17452818909
0.174185980476
0.173868745335
0.173549875121
0.173340565135
0.17346256349
0.174164874311
0.174188993897
0.171044572401
0.169074811998
0.17007170692
0.171081909589
0.171006743798
0.171403073007
0.142210440584
0.142225276131
0.142259031004
0.142288868765
0.142341248413
0.142411331688
0.142491635428
0.142591234508
0.142709634877
0.142831519431
0.142989279181
0.14315927966
0.1433373629
0.14351811756
0.143720101325
0.143951309233
0.144188625319
0.144433457841
0.14469514407
0.144979586545
0.145290409385
0.145630312385
0.146020141799
0.146488440342
0.147004120245
0.147524836617
0.14808358861
0.148695021363
0.149321572486
0.149960899544
0.150628755239
0.151325559175
0.152052014366
0.152807638222
0.153592055453
0.154405576621
0.155248643183
0.156121332523
0.157023372926
0.157954556843
0.15891435649
0.159901012885
0.1609110603
0.16193932576
0.162980291147
0.164029278959
0.165081661109
0.166131288438
0.167170488023
0.168191946724
0.169190828073
0.170166235247
0.17112004369
0.172050039673
0.172931522748
0.173724342599
0.174404760991
0.174611353151
0.174834395836
0.175010846205
0.175127957339
0.175283252161
0.175341384692
0.175249399725
0.175031604617
0.174723881094
0.17436115343
0.173982168722
0.173616814789
0.173275650183
0.172998321868
0.172836752826
0.172709460019
0.171627299173
0.170192309902
0.17016543329
0.171559386217
0.172528640976
0.170052279733
0.17156806557
0.141941369966
0.141955899173
0.141989250791
0.142021695642
0.142072156065
0.142144474234
0.142228076627
0.142329376739
0.142463468101
0.142598049731
0.142759598349
0.142934515931
0.143118263686
0.143305974614
0.143513242227
0.143748127353
0.143990282425
0.144241311898
0.144507986015
0.144795720315
0.145108559547
0.145449859857
0.145834644182
0.14629655773
0.146829863468
0.147370794928
0.147924173402
0.148530463123
0.14916841182
0.149814780048
0.150480431967
0.15118082357
0.151916589839
0.152684652651
0.15348280303
0.154310652229
0.155168912042
0.156057928985
0.156977782601
0.157928328847
0.15890944302
0.159919863366
0.160956079419
0.162012586894
0.1630840105
0.164166974441
0.165258356714
0.16635172738
0.167437261108
0.168506519547
0.169556298575
0.170589868357
0.171613595261
0.17263024623
0.173568562471
0.1739526097
0.174208191294
0.174463992342
0.174681258595
0.174843633408
0.174936139876
0.175005951521
0.174994197214
0.174858388336
0.174607012665
0.174267240593
0.173868678878
0.173441449378
0.173010285278
0.17259105856
0.172181013855
0.171779653311
0.171340149897
0.17066474985
0.170056289656
0.170061592479
0.170709678067
0.170865275131
0.171880893545
0.173483310684
0.141642641712
0.141656570592
0.141691781946
0.141725568674
0.141777409463
0.141851158288
0.141937723016
0.142037502867
0.142176115276
0.142328856823
0.142499492002
0.142681276656
0.142872843526
0.14307186879
0.143285717709
0.143524576698
0.143771670146
0.144029634657
0.144302242665
0.144594372891
0.144910063579
0.145253220493
0.145635530191
0.146089192517
0.146625627382
0.147196351476
0.147762115063
0.148357306905
0.148992006608
0.14964283607
0.150314074926
0.151022819494
0.151768928327
0.15254959707
0.153362306582
0.154205910501
0.155080626579
0.155987381639
0.156926554669
0.157898280872
0.158902583033
0.15993869435
0.161003526771
0.162091138379
0.163195804198
0.164315916658
0.165451170867
0.166595121017
0.167734671593
0.16885959389
0.169968146327
0.17106884147
0.172177725619
0.173225825538
0.173466155937
0.173725509087
0.174012458162
0.174254163759
0.174437243512
0.174558382044
0.174610563816
0.174601334465
0.174507911377
0.174306095954
0.173997172839
0.173599211432
0.173135184727
0.17262845152
0.172098973405
0.171562223637
0.170997381203
0.170398788943
0.169782929473
0.169126776807
0.168550023753
0.168409744736
0.168934749997
0.17000791176
0.172082104768
0.174396796447
0.141317108087
0.141329465703
0.141360511752
0.1413990945
0.141457288831
0.141532977993
0.141624364469
0.141724711792
0.141864209517
0.14202882383
0.142208132949
0.142396612438
0.142594842348
0.142808953614
0.143033523806
0.143277022002
0.143530073679
0.143796741575
0.144076783749
0.14437459194
0.144694208845
0.145039707743
0.145421229306
0.145868247879
0.146400996503
0.14699224611
0.147582361376
0.148176743626
0.148802784887
0.149452517607
0.150131083679
0.150849237403
0.151606639791
0.152400340415
0.153228618572
0.154089715705
0.154982785699
0.15590872873
0.156868959588
0.157863621845
0.158893056216
0.159957206508
0.161053407216
0.162175142881
0.163315148188
0.164474349059
0.165659543547
0.166864037554
0.168065234862
0.169253470154
0.170426816781
0.171606965646
0.172716196572
0.172995531097
0.173255648655
0.173506091426
0.17375408537
0.173952484797
0.174083395784
0.174140805667
0.174118755185
0.17401510272
0.173819870395
0.173521107857
0.173118811589
0.172624644792
0.172055249411
0.171427656382
0.170755982297
0.170049461647
0.169295872825
0.168467397958
0.167579219688
0.166672173806
0.165861778386
0.16541697911
0.165602253921
0.166555694295
0.168801157677
0.170814245225
0.140968683125
0.140979735412
0.141005000076
0.141048958988
0.141112742339
0.141190259609
0.141285825211
0.141391321269
0.141529330568
0.14170115159
0.141886994833
0.142081046505
0.142283207604
0.142507851159
0.142749277952
0.14300073663
0.143261074272
0.14353786907
0.143828421967
0.144134283864
0.144459777051
0.144808380515
0.14519069439
0.145633153588
0.146157137567
0.146750760957
0.147366801645
0.147977834584
0.148604041238
0.149253451767
0.149934298332
0.150660191186
0.151428968926
0.152235141411
0.153080324208
0.153960664265
0.154873212345
0.155820316903
0.15680365659
0.157823709938
0.158880592126
0.159974666658
0.161104278887
0.16226386223
0.16344682511
0.164654256795
0.165891909593
0.167151422987
0.168418805142
0.169689479421
0.170937670146
0.172130381027
0.172449107471
0.172730910206
0.17299002533
0.173217815711
0.173408603011
0.173539071713
0.173591948527
0.173559263042
0.173436019763
0.173218741656
0.172902081761
0.172480413562
0.171953894395
0.171329591684
0.170618093131
0.16982986749
0.168972293849
0.168046575767
0.167047796841
0.165914729598
0.164636575132
0.163270231149
0.161880706685
0.160578933925
0.159446849053
0.158342610892
0.156775497022
0.153670940425
0.140599128798
0.140610083514
0.140633956988
0.140682817311
0.140747460815
0.140824415399
0.140919361222
0.141031771753
0.141168209228
0.141344868252
0.141536459657
0.141736073295
0.141943245557
0.142172905388
0.142429279913
0.142692894712
0.142963020581
0.14324994313
0.143552370459
0.143869589691
0.144204448548
0.144557862069
0.144942406985
0.145383250191
0.145899479194
0.146488758941
0.147118902755
0.147749981022
0.148380671193
0.149032259972
0.149721630622
0.150454024069
0.151232232058
0.152052619645
0.152915689888
0.153816268343
0.154750284323
0.155720508945
0.156728927222
0.157776537562
0.158863640807
0.159990874923
0.161158708955
0.162364625502
0.163599233439
0.164853727339
0.166133912858
0.167445906104
0.16879476446
0.170191545055
0.171489841103
0.171837447599
0.172133338463
0.17241553251
0.172651114038
0.172830099071
0.172946189641
0.172985797454
0.172936011128
0.172789402446
0.172541669116
0.172189683058
0.171730135973
0.171160059362
0.170479191287
0.169690657478
0.16879912094
0.167808084454
0.16671732779
0.165520226878
0.164206618308
0.162690404026
0.160896088876
0.158834309552
0.156476731952
0.153730645058
0.150399783197
0.146159726647
0.140887972748
0.13945061065
0.140205154827
0.140216693746
0.140241838454
0.140295843658
0.140360728879
0.140436272706
0.140527936528
0.140645109903
0.140778201547
0.140957997765
0.141155492638
0.141360963215
0.141574436896
0.141810461763
0.142077107421
0.142353343903
0.142635414953
0.142933366229
0.143247010368
0.143576898355
0.143924764263
0.144285882981
0.144673897252
0.145115619409
0.1456266179
0.146209425472
0.146844101112
0.147490278764
0.148136935725
0.14879540828
0.149492516658
0.150233871204
0.151019702887
0.151849530298
0.152728203296
0.153652181952
0.154611561219
0.155607736285
0.156643211466
0.157720366713
0.158840851272
0.160006116554
0.161220571274
0.162480946645
0.163764625032
0.165058848791
0.166379175681
0.167754356582
0.169227954262
0.170830367269
0.171198955141
0.171487756408
0.171781509806
0.172033201747
0.172215842501
0.172320970524
0.172341948092
0.172269605985
0.172095328045
0.171813462497
0.171420559541
0.170914048164
0.17029139305
0.169550105475
0.168688457051
0.167705507604
0.166599724878
0.165366679887
0.163996255839
0.162469141111
0.160752250854
0.158786245382
0.156396520556
0.153448826425
0.149806531785
0.145093138182
0.138499586934
0.128222368843
0.109082198959
0.0628725836154
0.139778780437
0.139790846073
0.1398194887
0.139879354331
0.139945417874
0.140020248377
0.140110930661
0.140229961179
0.14035904172
0.140539381163
0.140742487568
0.140953872128
0.141173833476
0.141416520916
0.141691553349
0.141979927998
0.142276485038
0.142586900455
0.142911408701
0.143253713529
0.143617132604
0.143989894329
0.144382309687
0.144826489195
0.145335742229
0.145911907709
0.146544304184
0.147195317451
0.14786160106
0.148540989786
0.14924598316
0.149992017143
0.150788580845
0.151633323078
0.152522951947
0.153465383251
0.154452184616
0.155477699141
0.156544407083
0.157654150081
0.158810623957
0.160021443884
0.161294493813
0.162612580339
0.16394110001
0.165275700866
0.166648901292
0.168113521744
0.169570626765
0.170629272642
0.170899217738
0.171132648483
0.171376995829
0.171566049512
0.171667639539
0.171673493678
0.171577607185
0.171373535973
0.171055787804
0.170620529988
0.170065124128
0.169387252478
0.168584227117
0.16765267685
0.166588458969
0.165386168126
0.164037765854
0.162530352519
0.160843173622
0.158943671305
0.156781587135
0.154287817993
0.151248711843
0.147359457545
0.142348557527
0.135639790838
0.12601763502
0.111069925288
0.0859003684199
0.0440523341907
0.139308748329
0.139321266563
0.139353361337
0.13941957053
0.139486757979
0.139564659775
0.139656516349
0.139775822449
0.139904569692
0.140086622701
0.140295494715
0.140512755398
0.140739080561
0.140987994002
0.141269751097
0.141567983838
0.141881445488
0.142206825445
0.1425430936
0.142897621308
0.143277193353
0.143666923379
0.144065972303
0.144512063477
0.145022819589
0.145594971938
0.146223705796
0.146874584421
0.147549721943
0.148254082212
0.148982061034
0.149737409755
0.150533111475
0.15138821398
0.152297854042
0.153258998782
0.154270852449
0.155327125913
0.156427549673
0.157574382414
0.15877395177
0.160042504321
0.161381239979
0.162755682206
0.164137925013
0.165542441176
0.167026549812
0.168560288743
0.169809286839
0.170243890815
0.170492869327
0.170707272391
0.170887566099
0.17098781213
0.170984761695
0.170870023709
0.17063853714
0.170286188874
0.169809829107
0.169207119736
0.168476009757
0.167614034297
0.166617661822
0.165481769777
0.164199121538
0.162759503688
0.161148190606
0.159343571236
0.157313771445
0.155011835747
0.152368524279
0.149280646395
0.145598536199
0.140925848797
0.134748111135
0.12650089278
0.115084809519
0.0986139002692
0.0737598850888
0.0394740422599
0.138786089366
0.138801074394
0.138834917708
0.138901616945
0.138973821436
0.139060964647
0.139158812027
0.139282191672
0.139418394251
0.139598084408
0.139812166269
0.140035437945
0.140268262245
0.140523261319
0.140810688249
0.141114968221
0.141441876741
0.141786276383
0.142137705858
0.142506551034
0.142901340985
0.143312311604
0.14372685403
0.144172781816
0.144684983592
0.14525629711
0.145882470374
0.146533521111
0.147210816134
0.147931024114
0.148685059658
0.149462992684
0.150267176736
0.151123928574
0.152044026726
0.153026769559
0.15406593888
0.155154817944
0.156290700743
0.157478532389
0.158733907352
0.160072219972
0.161477718466
0.162915638098
0.164380599788
0.165908025606
0.167464170144
0.168749371493
0.169357430442
0.169698134784
0.169981795497
0.170177600836
0.170278973823
0.170274124778
0.17014934995
0.169897616343
0.169515981833
0.169002823758
0.168356965861
0.167577217356
0.166661803826
0.165607721337
0.16441008869
0.163061495089
0.161551230806
0.159864175987
0.15797909244
0.155866091982
0.153483008707
0.150770196377
0.147642903728
0.143979711792
0.139606534891
0.134242308364
0.127300529305
0.118044781622
0.105634306942
0.0887176941227
0.0648526305789
0.0346510970891
0.138216626507
0.138235697056
0.138270106458
0.138330640995
0.1384111701
0.138508334682
0.138615468582
0.138747657586
0.138898135992
0.139075056837
0.139291358626
0.139519984354
0.1397595851
0.140021124347
0.140314804077
0.140625839151
0.14096061124
0.141322258858
0.141692427234
0.142079543984
0.142490097728
0.142922134174
0.143363504118
0.143821097323
0.14432856124
0.144898002415
0.14552183063
0.146174014711
0.146851804213
0.147578822855
0.148350300252
0.149157261761
0.149983458801
0.150845976374
0.151770796027