/*--------------------------------*- C++ -*----------------------------------*\
| =========                 |                                                 |
| \\      /  F ield         | OpenFOAM: The Open Source CFD Toolbox           |
|  \\    /   O peration     | Version:  v1806                                 |
|   \\  /    A nd           | Web:      www.OpenFOAM.com                      |
|    \\/     M anipulation  |                                                 |
\*---------------------------------------------------------------------------*/
FoamFile
{
    version     2.0;
    format      ascii;
    class       volScalarField;
    location    "527";
    object      pa;
}
// * * * * * * * * * * * * * * * * * * * * * * * * * * * * * * * * * * * * * //

dimensions      [0 2 -2 0 0 0 0];


internalField   nonuniform List<scalar> 
6400
(
-0.120014320864
-0.120015793035
-0.12001992837
-0.120027974639
-0.12003984735
-0.120055522629
-0.120075061822
-0.120099168222
-0.120128378397
-0.120163423235
-0.120207681693
-0.120263114689
-0.120328393626
-0.1204038094
-0.12049085894
-0.120591429614
-0.120706860366
-0.120837473346
-0.120982589059
-0.121139441621
-0.121304735886
-0.121479514148
-0.121668753506
-0.12187800334
-0.122111238764
-0.122369075089
-0.122649728032
-0.122952026491
-0.123276477925
-0.123624422839
-0.12399713781
-0.124394062903
-0.124811099022
-0.125243947661
-0.125691135607
-0.126150449764
-0.126622295747
-0.127113211291
-0.127622507661
-0.128141297531
-0.128671006889
-0.129225800659
-0.129813672123
-0.130427098265
-0.131055665612
-0.131692401777
-0.132331922767
-0.132970316643
-0.133603983695
-0.134229883675
-0.134845805792
-0.135445944094
-0.136019959409
-0.136553432938
-0.137044447796
-0.137501382976
-0.137918735878
-0.138280179041
-0.138578217662
-0.138822760501
-0.13902071141
-0.139175563757
-0.139280201349
-0.139368163797
-0.139487924464
-0.139681248942
-0.13993605575
-0.1401962923
-0.140418629361
-0.140598560868
-0.140746464426
-0.140874552665
-0.140990633101
-0.141091652976
-0.141180078317
-0.141255480139
-0.141317044805
-0.141356908839
-0.141382201066
-0.141392792376
-0.120012223914
-0.120013788809
-0.120017505857
-0.120025354707
-0.120038002125
-0.120054425947
-0.120074148104
-0.120097268613
-0.120125352851
-0.120160235151
-0.120204174276
-0.120258821025
-0.120324033556
-0.120399739868
-0.120486611543
-0.120586047746
-0.120700747175
-0.120831455804
-0.120977085519
-0.121134088768
-0.121297818365
-0.121470857553
-0.121659339079
-0.121868119186
-0.12210120072
-0.122359163116
-0.122639551098
-0.122941770511
-0.123266425197
-0.123614410299
-0.123986559034
-0.124383228283
-0.124800572178
-0.125232904777
-0.125679776423
-0.12613893052
-0.126610137483
-0.12710114419
-0.127611238138
-0.128130288859
-0.128658082101
-0.129212289015
-0.129803534133
-0.130419536037
-0.13104919034
-0.131687226461
-0.132328098683
-0.132968250437
-0.133603491439
-0.134228890446
-0.134842083303
-0.135442718639
-0.136024103725
-0.136560757486
-0.137053868206
-0.137515523827
-0.137930253297
-0.138286428698
-0.138584773615
-0.138828924328
-0.139021620349
-0.139177042031
-0.139287326368
-0.139380316466
-0.139503834383
-0.139697313499
-0.139955423931
-0.140215290606
-0.140435903905
-0.140615161399
-0.14076268739
-0.140891061866
-0.141008316916
-0.141111054726
-0.141198360443
-0.1412711515
-0.141327981319
-0.141366373879
-0.141390767229
-0.141398908067
-0.120006282791
-0.120008852781
-0.120012123453
-0.120019265732
-0.120031415173
-0.120049646878
-0.120070871787
-0.120093048399
-0.120119465447
-0.120153263432
-0.120196434656
-0.120250315134
-0.120315109638
-0.120390613659
-0.120476855409
-0.120573464685
-0.120685736949
-0.120818638261
-0.120965469038
-0.121121101071
-0.121281713624
-0.12145044206
-0.121637214809
-0.121846737408
-0.122079432225
-0.122336118645
-0.122616266206
-0.122918683779
-0.123243315756
-0.123591047608
-0.123962550257
-0.124358711453
-0.124776693144
-0.125207380066
-0.125651753667
-0.126111796056
-0.126582166132
-0.12707108937
-0.127581490879
-0.128102901268
-0.128636393618
-0.129194438532
-0.129783963997
-0.130398410391
-0.131028482197
-0.131667771732
-0.132311081641
-0.132954113746
-0.133592624353
-0.134222474908
-0.134840479363
-0.135442541511
-0.136019456971
-0.136560121391
-0.137064465679
-0.137528508878
-0.137939894419
-0.138294020523
-0.138591639591
-0.138835666975
-0.139031683325
-0.139186186702
-0.139301235433
-0.139406407988
-0.139544861971
-0.139746558839
-0.139995054885
-0.140246500575
-0.140468048145
-0.140649917514
-0.140800033488
-0.140929844215
-0.14104404784
-0.141142248946
-0.141227007175
-0.141296744406
-0.141348894695
-0.141384453277
-0.141406540183
-0.141414414261
-0.119997945134
-0.120000510962
-0.120003149728
-0.120009642415
-0.120020171757
-0.120037983514
-0.120064583232
-0.120086595587
-0.120110774119
-0.120142768493
-0.120184726147
-0.120237785406
-0.120302087552
-0.120376545536
-0.120461491725
-0.1205595077
-0.120673090986
-0.120803215657
-0.120944237544
-0.121091800419
-0.121248525798
-0.121418473636
-0.12160560581
-0.121814064091
-0.122045999914
-0.122302106226
-0.122581923421
-0.12288422282
-0.123208741354
-0.123555962011
-0.123927179165
-0.12432270038
-0.124739877316
-0.1251717642
-0.125612129452
-0.126067489027
-0.126540165139
-0.127028118159
-0.12753479448
-0.128058638184
-0.128599192447
-0.129162654418
-0.129753509046
-0.130368168176
-0.130999495
-0.131641133078
-0.132287738429
-0.132934702391
-0.133577681162
-0.134212485455
-0.134835050744
-0.135440171626
-0.136020135755
-0.136567120922
-0.137076662656
-0.137541566995
-0.137952522367
-0.138305863009
-0.138602853243
-0.138847312241
-0.13904539002
-0.139204658966
-0.139335455062
-0.13946280315
-0.139611609695
-0.139805424853
-0.14005017834
-0.140300822466
-0.140523930709
-0.140708021695
-0.140857143752
-0.14098112545
-0.141088746509
-0.141186922285
-0.141272766582
-0.141338091274
-0.141383396988
-0.141417509242
-0.141440867792
-0.141450448139
-0.119984906449
-0.119985290439
-0.119988509214
-0.119995003734
-0.120006430222
-0.120022508092
-0.120046281399
-0.120070459148
-0.120095872264
-0.12012765662
-0.120168408508
-0.120220608462
-0.120284339718
-0.120360326378
-0.120447948969
-0.120544924015
-0.120653471834
-0.120774736395
-0.120907708159
-0.121051890985
-0.121207766796
-0.12137691085
-0.121563269977
-0.121770867878
-0.122001761024
-0.122256971785
-0.122535954505
-0.122837895045
-0.123162158997
-0.123509132079
-0.123879403915
-0.124275210967
-0.124693762965
-0.125120896055
-0.125558110234
-0.126010100155
-0.126478411555
-0.126966443247
-0.127474720286
-0.128002048832
-0.128548461431
-0.129117251763
-0.129710990738
-0.130327463822
-0.130961188505
-0.131606236401
-0.132257189188
-0.132909223356
-0.133557870105
-0.134198766493
-0.134827296618
-0.135437837626
-0.136023418243
-0.136576883838
-0.137091380379
-0.137558331972
-0.137969932129
-0.138323612258
-0.138621490829
-0.138868672244
-0.139072744142
-0.139243423898
-0.13939482546
-0.139542629455
-0.139697401759
-0.139889094894
-0.140128386708
-0.140376488095
-0.14060063104
-0.140784926866
-0.140929079396
-0.141046675086
-0.141155918336
-0.141259176998
-0.141342346671
-0.141401433024
-0.141444379776
-0.141482352007
-0.141505172068
-0.141512666526
-0.11996108707
-0.119960864364
-0.119966280622
-0.119972768161
-0.119984910172
-0.120001442838
-0.120023416885
-0.120047565277
-0.12007466839
-0.120106903892
-0.120146017621
-0.120197323513
-0.120263997682
-0.120342664181
-0.120428260937
-0.120520628671
-0.120622397733
-0.120736805195
-0.120864836018
-0.121005560588
-0.121158170142
-0.121325223513
-0.121510416441
-0.12171702634
-0.121946777935
-0.122200251319
-0.122478250125
-0.122779401073
-0.123103461883
-0.123450072586
-0.123820347277
-0.124214726769
-0.124629666822
-0.125057827606
-0.125489189909
-0.125934332074
-0.126400774076
-0.126889855237
-0.127400639726
-0.127931966486
-0.128483862957
-0.12905811505
-0.12965601909
-0.130275887675
-0.130913340547
-0.131562969598
-0.132219410607
-0.1328777229
-0.133533332888
-0.134181717933
-0.134817944856
-0.135436177286
-0.136029531059
-0.13659040246
-0.137110453746
-0.137580808332
-0.137994965808
-0.138351555252
-0.138653710329
-0.138907743878
-0.139122361921
-0.139308564653
-0.1394826761
-0.139643935808
-0.13980484896
-0.140001713065
-0.140241063957
-0.140483999949
-0.140703542734
-0.140881851736
-0.141019547002
-0.141139392841
-0.141258093727
-0.141361767431
-0.141439269443
-0.141493895955
-0.141539175757
-0.141576526963
-0.141595984413
-0.141603861689
-0.119924950219
-0.11992744597
-0.119936399756
-0.119945901075
-0.119955512413
-0.119971896489
-0.119994586724
-0.120018981225
-0.120047010835
-0.120079661181
-0.120119926861
-0.120170888829
-0.120239207816
-0.120315722407
-0.120397243585
-0.12048389994
-0.120580484209
-0.120691207907
-0.120815592579
-0.120950860491
-0.121099234901
-0.121264055936
-0.121447418135
-0.121652075812
-0.121880151364
-0.122133043789
-0.122408049368
-0.12270812093
-0.123031981581
-0.123380022071
-0.123749187515
-0.124140022108
-0.12455201752
-0.124972587119
-0.125400425103
-0.125842518014
-0.126308224453
-0.126798680858
-0.127312287693
-0.127847751951
-0.128405010228
-0.128984992045
-0.129588133705
-0.130212864595
-0.130855463734
-0.131510982581
-0.132174198949
-0.132840162876
-0.133504257736
-0.134161855079
-0.134807806826
-0.13543601461
-0.136039225187
-0.136609068883
-0.137136393522
-0.13761264998
-0.138032668313
-0.138396244825
-0.138707302703
-0.138972547166
-0.139201388893
-0.139405983936
-0.139596193527
-0.139770065386
-0.139949194953
-0.140151622524
-0.140389456442
-0.140622240199
-0.140829580005
-0.140999770499
-0.141139902603
-0.14127265085
-0.141397995635
-0.141497275535
-0.141569155747
-0.141621915053
-0.141668090023
-0.141699051985
-0.141711861024
-0.14171837291
-0.119882718269
-0.119887771075
-0.119897858417
-0.119911352988
-0.119921296904
-0.119938244127
-0.119959607829
-0.119984421774
-0.120013676818
-0.120043947091
-0.12008673469
-0.120141428558
-0.120206861241
-0.120279548754
-0.120355885965
-0.120436844086
-0.12053045449
-0.120638663521
-0.120757565035
-0.120887149687
-0.121031164148
-0.121192924124
-0.121373848481
-0.121576895062
-0.121803422248
-0.122053835178
-0.122328061931
-0.122622632322
-0.122947852061
-0.123298357584
-0.123665138369
-0.124047935484
-0.124454289846
-0.124869171413
-0.125292082122
-0.125734325435
-0.126200792201
-0.126692672777
-0.127209031238
-0.127748685432
-0.128311371751
-0.128897465542
-0.129506823899
-0.130137794563
-0.13078700022
-0.131449848281
-0.132121315452
-0.132796541458
-0.133470935216
-0.134139806944
-0.134797818422
-0.135438519312
-0.13605407426
-0.136635391965
-0.13717303259
-0.137659199464
-0.138089929994
-0.13846549378
-0.138789307754
-0.139067536014
-0.139310077401
-0.139529309616
-0.139734421055
-0.13993179337
-0.140127235893
-0.140337934982
-0.140567061531
-0.140787677873
-0.140983719483
-0.141152475873
-0.141304541631
-0.14145111299
-0.141576865741
-0.141670971458
-0.141737759334
-0.141788209812
-0.14182518227
-0.141844715642
-0.141846498372
-0.141846676334
-0.119836698006
-0.119843228885
-0.119853126632
-0.119863680872
-0.119876517194
-0.119897190443
-0.119917717446
-0.119942286292
-0.119973999093
-0.120005409351
-0.120044362043
-0.1201011983
-0.120165772353
-0.120233456863
-0.120304980248
-0.120383535351
-0.120473326652
-0.12057668589
-0.120690034538
-0.120814800863
-0.12095437898
-0.121111829931
-0.121288548329
-0.121488418593
-0.121716035675
-0.12196220402
-0.122234685851
-0.122530554748
-0.122850736575
-0.123197317036
-0.123563188686
-0.123946394534
-0.124337976536
-0.124744449513
-0.125166769351
-0.125609996148
-0.126077622307
-0.126571046212
-0.127090092863
-0.127633962422
-0.128202264515
-0.128794948869
-0.129411454445
-0.130049984566
-0.130707299879
-0.131379058477
-0.1320604769
-0.132746870025
-0.133433729052
-0.134116330298
-0.134789157707
-0.135445371258
-0.136076545658
-0.13667308354
-0.137225684132
-0.137727419226
-0.138174883434
-0.138566943075
-0.138904728335
-0.139194222821
-0.139447902468
-0.139681083156
-0.139904402147
-0.1401227212
-0.140335950732
-0.140560006426
-0.140785458602
-0.140987035538
-0.141174309218
-0.141349085917
-0.141518420805
-0.14167517724
-0.141800004589
-0.141889969078
-0.1419510105
-0.141990979094
-0.14200792477
-0.142007756276
-0.141995267221
-0.141985580175
-0.119786413166
-0.119793820935
-0.119804997287
-0.11981435451
-0.119827952264
-0.119848037397
-0.119868355201
-0.119891786018
-0.119921535745
-0.119959402103
-0.119997935818
-0.120052320116
-0.120114902744
-0.120178487559
-0.120244648382
-0.120321569219
-0.120409439419
-0.120506511147
-0.120613254116
-0.120732987428
-0.120868568022
-0.12102194891
-0.121194112006
-0.121387529439
-0.121614074679
-0.121861516512
-0.122123923956
-0.122419824871
-0.122737043564
-0.123082165477
-0.123444450987
-0.12382061845
-0.12420632212
-0.124604572952
-0.125024801709
-0.125468844022
-0.125937792086
-0.126432893779
-0.126954601421
-0.127502673099
-0.128076803968
-0.128676631614
-0.129301223745
-0.129948605876
-0.130615585706
-0.131298007014
-0.131991339732
-0.132691144303
-0.133393046434
-0.134092321656
-0.134783305026
-0.135458833108
-0.136110030189
-0.136727091128
-0.137301099323
-0.137825684448
-0.138296536077
-0.138707590143
-0.139056676202
-0.139354511859
-0.139619799734
-0.139870380218
-0.140113342773
-0.140348272762
-0.140577410279
-0.140806222355
-0.141021710975
-0.141224186563
-0.141407538177
-0.141594458886
-0.141782399504
-0.141949017968
-0.14207681509
-0.142165076895
-0.142217225776
-0.142234680024
-0.142220378031
-0.14219113927
-0.142159178102
-0.142138806847
-0.119729801094
-0.11973670271
-0.119748307809
-0.119759298625
-0.11977631443
-0.119792603553
-0.119811823351
-0.119834768908
-0.119858687579
-0.119898358269
-0.119940688307
-0.119992921203
-0.12005300816
-0.120114480795
-0.120177327367
-0.120250365894
-0.120335045617
-0.120426674129
-0.120527154571
-0.120640746091
-0.120771470478
-0.120921471399
-0.121092157186
-0.121279134249
-0.121494955566
-0.121745678789
-0.122006977463
-0.122295307709
-0.122607929244
-0.122940213505
-0.123302350732
-0.123674447001
-0.124053733532
-0.124447638081
-0.124866119465
-0.125310308508
-0.125780349742
-0.126277196577
-0.126801592063
-0.127353824419
-0.127933943143
-0.128541469982
-0.129175106839
-0.129832647754
-0.130510909697
-0.131205921594
-0.131913439474
-0.132629298753
-0.133349303892
-0.134068780297
-0.134782024767
-0.135481710498
-0.136158806248
-0.136803564842
-0.137407401654
-0.137963427229
-0.138464416393
-0.138893770168
-0.13924962709
-0.139556437093
-0.139839088901
-0.140113244992
-0.140376085228
-0.14062006605
-0.140849041473
-0.141071388415
-0.141278446317
-0.141491436254
-0.141675806832
-0.141887730951
-0.142099564979
-0.142284025394
-0.142422905765
-0.142512756863
-0.142550433234
-0.142533327672
-0.142471197881
-0.142400118141
-0.142337469442
-0.142301838174
-0.119665466744
-0.119670584468
-0.119678661513
-0.119693021728
-0.119713907645
-0.11972883692
-0.119747202727
-0.119771033988
-0.119792092838
-0.119827191974
-0.119871588086
-0.119922488121
-0.119979393973
-0.120039153388
-0.120102478593
-0.120171919988
-0.120251251786
-0.120337007822
-0.12043161846
-0.12053857402
-0.120661941999
-0.120805473442
-0.120976953486
-0.121165662044
-0.121369242709
-0.121611856926
-0.121873466041
-0.122150684192
-0.122463841246
-0.122792743179
-0.123140649491
-0.123502950146
-0.123877557818
-0.124271603275
-0.124689388492
-0.125133300868
-0.125604115398
-0.126102712073
-0.126629929009
-0.12718633336
-0.127772484509
-0.128388174697
-0.129031823861
-0.129700860638
-0.130392087816
-0.131101801171
-0.131826096533
-0.132561103014
-0.133302808721
-0.134046705803
-0.134787226208
-0.135517231431
-0.136227941074
-0.136909857462
-0.137553875149
-0.138149552589
-0.138688301794
-0.13913711222
-0.139496582897
-0.139817930278
-0.140129065444
-0.140437103288
-0.140721580583
-0.140963365058
-0.141173363469
-0.141380343067
-0.14156012098
-0.141772141396
-0.141996020648
-0.142226346111
-0.142481854508
-0.142702353962
-0.142867955381
-0.142964681871
-0.142981716763
-0.142912982881
-0.142767766575
-0.142631182157
-0.142513148918
-0.142451840727
-0.119593407053
-0.119596886198
-0.119600217693
-0.119616016925
-0.119635759602
-0.119652818021
-0.119671564622
-0.119696098386
-0.119718385867
-0.119750033148
-0.119792976289
-0.11984151266
-0.119894617284
-0.119950068005
-0.120013807702
-0.120082861073
-0.120157275445
-0.120237140168
-0.120326025704
-0.120426705219
-0.120541925422
-0.120675397992
-0.12084029532
-0.121035675376
-0.121235815437
-0.121461796148
-0.121723233743
-0.121994989701
-0.122292565784
-0.12261751234
-0.122959079783
-0.123314020032
-0.123682731143
-0.124075242496
-0.124492589764
-0.12493632122
-0.125407684049
-0.125907814096
-0.126437990582
-0.126998894722
-0.1275912271
-0.128215326595
-0.128869781431
-0.129551658707
-0.130257620634
-0.130984307584
-0.131728293535
-0.132485986259
-0.1332535719
-0.134026818732
-0.13480067195
-0.13556873641
-0.136323186268
-0.137054554124
-0.137749726929
-0.138386846586
-0.138982392111
-0.13946243616
-0.139820952079
-0.14016431366
-0.140519754345
-0.14088148883
-0.141199712428
-0.141418926042
-0.1415777285
-0.141793529122
-0.141828521676
-0.142053014094
-0.142303297879
-0.14255785442
-0.142887278211
-0.143183593762
-0.143401792752
-0.143526509944
-0.14352995769
-0.143392977762
-0.143099148445
-0.142871650925
-0.14265664769
-0.142555771467
-0.119514556184
-0.119518304793
-0.119523520259
-0.119533329255
-0.119548848415
-0.119566662682
-0.119585968832
-0.11960939284
-0.119635056181
-0.119664367304
-0.11970495978
-0.119750590552
-0.119799994043
-0.119850885673
-0.119910051097
-0.119978573583
-0.120050356376
-0.120125808113
-0.120209286084
-0.120303884816
-0.120411680345
-0.120534982664
-0.120688421843
-0.120882889876
-0.121086983296
-0.121300075999
-0.121553669054
-0.121824173181
-0.12210683105
-0.1224195494
-0.122750452058
-0.123098079091
-0.123466191603
-0.123857683079
-0.124274184557
-0.124717534639
-0.1251894895
-0.125691107508
-0.126223925128
-0.126789469039
-0.127388509168
-0.128021444653
-0.128687276947
-0.129383116378
-0.130105547536
-0.130851624109
-0.131618495475
-0.132402841009
-0.133200930754
-0.134009103338
-0.134823360048
-0.135639138977
-0.13645083803
-0.137247823581
-0.138005359039
-0.138661481828
-0.139385580083
-0.14002237657
-0.140308946167
-0.140675087132
-0.141106857264
-0.141556786066
-0.141872331768
-0.142034183478
-0.141879020976
-0.141770382786
-0.142027244525
-0.142546402689
-0.142968759042
-0.143250076712
-0.14381682525
-0.144260254465
-0.14453551073
-0.144658777543
-0.144589671772
-0.144332799582
-0.14350493129
-0.143102909382
-0.142709176196
-0.142564904838
-0.119427308693
-0.119431442617
-0.119440347017
-0.119444280318
-0.119455473714
-0.119472323255
-0.119491488908
-0.11951460129
-0.119544209546
-0.119570174602
-0.119607590409
-0.1196501381
-0.119696179306
-0.119743731932
-0.119797947486
-0.11986285939
-0.119931238486
-0.120002660327
-0.120080909377
-0.120169177685
-0.120269874666
-0.120384647088
-0.120524092106
-0.120708223481
-0.120918474845
-0.121125738742
-0.121361098847
-0.121632828405
-0.121913095485
-0.122204666268
-0.122521841679
-0.122862288002
-0.123227148623
-0.123616899566
-0.124032321041
-0.124475151247
-0.124947300291
-0.125450495858
-0.125986138549
-0.126556090141
-0.127162035908
-0.127804466369
-0.128482391159
-0.129193082299
-0.12993344575
-0.13070127334
-0.1314944224
-0.132309647204
-0.133143129618
-0.133991956879
-0.13485438162
-0.135729712767
-0.1366162268
-0.137501991233
-0.138325962467
-0.138888999468
-0.139978460976
-0.139975204481
-0.139916561277
-0.13991335721
-0.139890796164
-0.139841274705
-0.139761840865
-0.139754833611
-0.13999231687
-0.140093623602
-0.139514995092
-0.139125473363
-0.139057558131
-0.139254943107
-0.139540385176
-0.140088926453
-0.140815036987
-0.141577316937
-0.142124683443
-0.142378915629
-0.142753552007
-0.143433904508
-0.142572257471
-0.142421028631
-0.119330309379
-0.119333809194
-0.119340998235
-0.119344665621
-0.119353430244
-0.119369300233
-0.119387205649
-0.119407998208
-0.119440076533
-0.119465914273
-0.119500279539
-0.119539969392
-0.119583203769
-0.119628370583
-0.119678179731
-0.119737790701
-0.119801415448
-0.119868300744
-0.119941033016
-0.120022616235
-0.120115604295
-0.120222223177
-0.120349552001
-0.120518703062
-0.120726641578
-0.120936807833
-0.1211531452
-0.121407285225
-0.121686164291
-0.121971759355
-0.122275420224
-0.12260615532
-0.122965441274
-0.123352065547
-0.123765656737
-0.124207286744
-0.12467929308
-0.125183596365
-0.125722130965
-0.126296671142
-0.126909484589
-0.127561830813
-0.128252747905
-0.12897917858
-0.129738362306
-0.130529748575
-0.131352697852
-0.13220342751
-0.133076581715
-0.133970713582
-0.134889234926
-0.135837557162
-0.136824463115
-0.137849876349
-0.138954347398
-0.138922614081
-0.139047878066
-0.139305536439
-0.139238034429
-0.138959151922
-0.138485151168
-0.137830625346
-0.137015994902
-0.13618567822
-0.135536219305
-0.1349437011
-0.134125728088
-0.133372452321
-0.132922336453
-0.132876929872
-0.133168746519
-0.133845039805
-0.134898427237
-0.136230223102
-0.137634986439
-0.138912469598
-0.139888289489
-0.140455526064
-0.141594783349
-0.141921407916
-0.119224865051
-0.119227651142
-0.119234174675
-0.11923668409
-0.119244372175
-0.119258571372
-0.119274606902
-0.119291296332
-0.119320341618
-0.119348756586
-0.119381787466
-0.119419077679
-0.119460092129
-0.119504286328
-0.119549256059
-0.119603116708
-0.119661271612
-0.119723130028
-0.119789806319
-0.119864253041
-0.119948884375
-0.120046324547
-0.120162278901
-0.120314819479
-0.120510741212
-0.120726450354
-0.120934171424
-0.121166345239
-0.121427999154
-0.121706054438
-0.122001242161
-0.122325197056
-0.12267846512
-0.123060786802
-0.123471906038
-0.123912123229
-0.124383301633
-0.12488831396
-0.125429330614
-0.126008504495
-0.126628308722
-0.127290617398
-0.127995160741
-0.128738446295
-0.129517223704
-0.130333574879
-0.131189517824
-0.132079342885
-0.13299436749
-0.133936635501
-0.134916377313
-0.135946064448
-0.137028273121
-0.138296974903
-0.138283253782
-0.138323918358
-0.13842380107
-0.138508479366
-0.138309822563
-0.137812803689
-0.137039129064
-0.136029725748
-0.134835667981
-0.133575933334
-0.132357276657
-0.131152287493
-0.129903525726
-0.128710635016
-0.127718224945
-0.12708501606
-0.126901004762
-0.12718367595
-0.127950229626
-0.12918736829
-0.130835052069
-0.132771336075
-0.134737685394
-0.136512963349
-0.138744739184
-0.141552491113
-0.119112683521
-0.119114395013
-0.119117778324
-0.119120407908
-0.119128944471
-0.119141337096
-0.119155850054
-0.119169326822
-0.119194141967
-0.119221632853
-0.119252474529
-0.119286706091
-0.119324487163
-0.119368141021
-0.119409110016
-0.119457150707
-0.119509592952
-0.119566501624
-0.119626795787
-0.119693703409
-0.11976940223
-0.11985666295
-0.119960818287
-0.120096718127
-0.120275600055
-0.120487333966
-0.120698258533
-0.120914499581
-0.121155034682
-0.12141675013
-0.121701212461
-0.122016832376
-0.122362722961
-0.122739623906
-0.123147651125
-0.123586041389
-0.124056521978
-0.124561812447
-0.125105113989
-0.125688602867
-0.12631514925
-0.126987788511
-0.127706831487
-0.128468320598
-0.129265992053
-0.130103742392
-0.130993158008
-0.131928620637
-0.132888308605
-0.133876762233
-0.134920336777
-0.136031206662
-0.137266969408
-0.137176244556
-0.137262312136
-0.137600899829
-0.137685164036
-0.137447606156
-0.136869710232
-0.135994711875
-0.134858985874
-0.133514254196
-0.132022726739
-0.130466926546
-0.12889379415
-0.127296729774
-0.125690271704
-0.124146519388
-0.122759622915
-0.121661808471
-0.12099112263
-0.120799695226
-0.121108204579
-0.121948160811
-0.123384622423
-0.125474752632
-0.127951376535
-0.130171712113
-0.133700271095
-0.144801097002
-0.118995563196
-0.1189962487
-0.118996100516
-0.11899923819
-0.119008040982
-0.11901827103
-0.119030743046
-0.119042726973
-0.119061966303
-0.119086158259
-0.11911330196
-0.11914333443
-0.119176050254
-0.119215358867
-0.119254799488
-0.1192979146
-0.119344440502
-0.11939588531
-0.119450351683
-0.119509882768
-0.119576464104
-0.119652521742
-0.119744269232
-0.119863302239
-0.120021333725
-0.120217182593
-0.120428506301
-0.120637247894
-0.120860846667
-0.121106544056
-0.121375929638
-0.121679566868
-0.122017027017
-0.122385978969
-0.122789662093
-0.123225681709
-0.123694573262
-0.12420004119
-0.124745551273
-0.125333797957
-0.125967194577
-0.126649473792
-0.127382344941
-0.128163020019
-0.128984964996
-0.129850746144
-0.130770344105
-0.131732351715
-0.132724753746
-0.133762109741
-0.134867542523
-0.136102537217
-0.135850059376
-0.135844225216
-0.136420722865
-0.136724697025
-0.136527620452
-0.135885285915
-0.134858472263
-0.13353856443
-0.131981676667
-0.13023808256
-0.1283578604
-0.126390978269
-0.124359304751
-0.122265609039
-0.12013744313
-0.11803785909
-0.116048056024
-0.114278657404
-0.112867077352
-0.111919033377
-0.111417715492
-0.11137717952
-0.111911208578
-0.113261349679
-0.115330400554
-0.116855890043
-0.117471091031
-0.12244399497
-0.11887476156
-0.118874822159
-0.118872906265
-0.118876464682
-0.118883332823
-0.11889029237
-0.118898658714
-0.118909498508
-0.118922762419
-0.118942375885
-0.118964968803
-0.118990107169
-0.119017395608
-0.119049507657
-0.119086253729
-0.119125046191
-0.119165643922
-0.119210278156
-0.119258479861
-0.119311011888
-0.119368888375
-0.119433145599
-0.119511630046
-0.119613747051
-0.119750051268
-0.119923907615
-0.120122192107
-0.120324962753
-0.120534293652
-0.120764463174
-0.121021488426
-0.121308975296
-0.121634044813
-0.121994566189
-0.122393504177
-0.122826939582
-0.123293769583
-0.123798692678
-0.124345755079
-0.124938419802
-0.12557927585
-0.126271852097
-0.127020799683
-0.127825957784
-0.128679919264
-0.129574569731
-0.130514737152
-0.131493197065
-0.132506283927
-0.133574364947
-0.134806549886
-0.13444734841
-0.134303014
-0.134973499802
-0.135560371241
-0.135506679692
-0.134862743115
-0.13374199986
-0.132236543121
-0.13043891899
-0.128404017294
-0.126170963325
-0.123771583224
-0.121233092159
-0.11856914356
-0.115790959216
-0.112928438664
-0.110034290598
-0.107175200988
-0.104436226504
-0.10192942922
-0.0997497009567
-0.097821277858
-0.0960129278347
-0.0943579515801
-0.0932339276701
-0.0925932619078
-0.0887766033776
-0.0738721047949
-0.0558791164526
-0.118749524323
-0.11874917509
-0.118746607307
-0.118750516618
-0.118754867598
-0.118757976052
-0.118761368335
-0.118769787358
-0.118775913717
-0.118790197039
-0.118807811858
-0.118827620425
-0.118849409661
-0.118874903059
-0.118905820893
-0.118939395319
-0.118973869906
-0.11901090524
-0.119050950444
-0.119095690312
-0.119144958336
-0.119197215877
-0.119261063105
-0.119346039209
-0.119460692021
-0.119610171297
-0.119789671622
-0.119982324632
-0.120185388754
-0.1203967751
-0.120636990333
-0.120909135103
-0.121218056311
-0.121562213945
-0.121950816168
-0.122382837635
-0.122848820324
-0.12335361476
-0.123901269413
-0.124496948488
-0.125145247349
-0.12585023593
-0.126619078672
-0.127452429698
-0.128335209372
-0.12925776306
-0.130227248196
-0.13123385272
-0.132254593898
-0.133399704714
-0.133067844469
-0.132812949388
-0.133437723812
-0.134213861599
-0.134394755442
-0.133819779052
-0.132631504658
-0.130965879594
-0.128926873077
-0.126592333331
-0.124005324362
-0.121192959256
-0.118175664932
-0.11497159514
-0.111595701649
-0.108066599354
-0.104414041338
-0.100678351684
-0.0969024001855
-0.0931275111496
-0.0893965884029
-0.0857231095378
-0.0819651721492
-0.0777580668944
-0.0729442248375
-0.0678407002646
-0.0618794573939
-0.0483048184069
-0.0112702670806
0.0433138939849
-0.11861794733
-0.118617125758
-0.118614650908
-0.118618827211
-0.118620618824
-0.118619916902
-0.118619280057
-0.118623259178
-0.11862178634
-0.118630013191
-0.118642011155
-0.118655818535
-0.118671506473
-0.118689914161
-0.118713447235
-0.118740625163
-0.118768989216
-0.118797485436
-0.118827743495
-0.118863091857
-0.118902790847
-0.118942974651
-0.118990425973
-0.119057662092
-0.119150956099
-0.11927465712
-0.119430517833
-0.119603866521
-0.119798081763
-0.11999953597
-0.120219934537
-0.120469603175
-0.120761914799
-0.121095102687
-0.121466117365
-0.121887519116
-0.122351807165
-0.122856540876
-0.123406253927
-0.124004698072
-0.124658752974
-0.125378054866
-0.12617057973
-0.127030507
-0.127937054551
-0.128891210319
-0.129928748954
-0.131017488864
-0.131970532792
-0.131825781332
-0.131539361328
-0.132016686017
-0.132817612345
-0.133189746783
-0.132770219199
-0.131576273177
-0.129777115111
-0.127514097992
-0.124888634987
-0.121966616328
-0.118785215152
-0.11536982477
-0.111742767614
-0.107926477768
-0.103942784921
-0.099813677505
-0.0955601287302
-0.0911971744491
-0.0867254605231
-0.082119118604
-0.0773105106738
-0.0721707794187
-0.0664744672393
-0.0597574640019
-0.0517143089505
-0.0424409983381
-0.0302172898224
-0.00559022017953
0.0483869866484
0.117546007826
-0.118476881387
-0.118475603064
-0.118473224786
-0.118477341015
-0.118476092248
-0.118472706442
-0.118468519396
-0.118466566719
-0.118458813445
-0.118461575646
-0.118467455298
-0.118474560636
-0.118483327458
-0.118493718755
-0.118508442843
-0.118527370423
-0.118549309188
-0.118568306622
-0.118587903947
-0.118612286288
-0.11864001218
-0.118668639384
-0.118698859314
-0.118746408368
-0.118818539438
-0.118916465995
-0.119045565664
-0.119193738685
-0.119366385638
-0.119559643601
-0.119768252895
-0.119996204417
-0.120259328633
-0.120573738655
-0.12093495138
-0.121342560007
-0.121799376647
-0.122301108512
-0.122850926177
-0.123453151844
-0.124114833702
-0.124848852322
-0.125662075228
-0.12654043081
-0.127470517053
-0.128473680339
-0.129641286177
-0.131030259993
-0.130860589011
-0.130628909547
-0.130860807738
-0.131537888518
-0.131977899623
-0.131717774938
-0.130597755961
-0.128723923965
-0.12627588024
-0.12339108275
-0.120165226478
-0.116660950849
-0.112919503983
-0.108973430129
-0.104851772651
-0.100579728591
-0.0961750821269
-0.0916443545267
-0.0869779456517
-0.0821453736571
-0.0770914623584
-0.0717248705445
-0.0658860930628
-0.059309162722