/*--------------------------------*- C++ -*----------------------------------*\
| =========                 |                                                 |
| \\      /  F ield         | OpenFOAM: The Open Source CFD Toolbox           |
|  \\    /   O peration     | Version:  v1806                                 |
|   \\  /    A nd           | Web:      www.OpenFOAM.com                      |
|    \\/     M anipulation  |                                                 |
\*---------------------------------------------------------------------------*/
FoamFile
{
    version     2.0;
    format      ascii;
    class       volScalarField;
    location    "595";
    object      pa;
}
// * * * * * * * * * * * * * * * * * * * * * * * * * * * * * * * * * * * * * //

dimensions      [0 2 -2 0 0 0 0];


internalField   nonuniform List<scalar> 
6400
(
-0.120930473155
-0.120931571525
-0.120934663994
-0.120940708316
-0.120949695836
-0.120961646622
-0.120976632663
-0.120995207347
-0.121017882957
-0.121045356144
-0.121080213116
-0.121124026134
-0.121176001544
-0.12123648473
-0.121306756247
-0.121388456253
-0.121482881861
-0.121590529974
-0.12171104955
-0.121842472594
-0.121982515951
-0.122132310197
-0.122296086221
-0.122478526456
-0.122683042609
-0.122910382868
-0.123159386337
-0.123429342853
-0.123720873048
-0.124035281501
-0.124373816774
-0.124736196842
-0.125119230735
-0.125519503714
-0.125935848354
-0.126366656392
-0.12681251771
-0.127278733496
-0.127764702185
-0.128263234369
-0.128775456135
-0.129312834157
-0.129881774459
-0.130475844525
-0.131085834222
-0.131705296044
-0.132329184026
-0.132953607398
-0.133574911626
-0.134189888038
-0.134795952184
-0.135387617129
-0.135955247487
-0.136485985273
-0.136977265102
-0.137434683632
-0.137852641033
-0.138216892354
-0.13852078811
-0.138771747564
-0.138975435692
-0.139134067548
-0.139243189287
-0.139331545126
-0.139441145354
-0.13961141818
-0.139832794034
-0.140056002364
-0.140243907372
-0.140393588796
-0.140514702375
-0.140618119266
-0.140710771193
-0.140790596275
-0.14085982252
-0.140918454705
-0.140965990201
-0.140996616896
-0.141015949712
-0.141024059734
-0.120928946225
-0.120930116233
-0.120932904997
-0.120938790651
-0.120948307283
-0.120960763222
-0.120975839646
-0.120993651904
-0.121015457162
-0.1210427405
-0.121077289781
-0.121120455314
-0.121172278093
-0.121232846896
-0.121302835124
-0.121383538077
-0.121477271254
-0.121584839873
-0.121705561978
-0.121836896126
-0.121975585427
-0.122123932049
-0.122287023905
-0.122468997431
-0.122673250453
-0.122900518259
-0.123149161604
-0.123418899168
-0.12371042267
-0.124024698566
-0.124362647148
-0.124724698493
-0.125107837214
-0.125507586721
-0.125923569817
-0.126354193288
-0.126799548642
-0.127265854784
-0.127752529041
-0.128251456257
-0.128762495272
-0.129299658642
-0.129871285697
-0.130467466918
-0.131078446673
-0.131699096219
-0.132324265688
-0.132950327101
-0.133573164568
-0.134188097928
-0.134792394109
-0.135384719632
-0.135958113
-0.136491616179
-0.136984863662
-0.137446087789
-0.137862204134
-0.138222605269
-0.138526890595
-0.13877769242
-0.138977611735
-0.139136797214
-0.139250505595
-0.139343546226
-0.139457157994
-0.139627989837
-0.139852280174
-0.14007478154
-0.140260676631
-0.140409268746
-0.14052958725
-0.140632806281
-0.140725976
-0.140806718584
-0.140874692915
-0.140930962135
-0.140974623453
-0.141003953121
-0.141022538776
-0.141028720727
-0.120924605591
-0.120926498528
-0.120928961955
-0.12093430004
-0.120943399193
-0.120957129283
-0.12097322051
-0.120990219466
-0.121010677579
-0.12103702826
-0.12107086003
-0.12111328604
-0.121164587436
-0.121224755768
-0.121293988705
-0.121372275484
-0.121463801724
-0.121572521165
-0.121693754817
-0.121823746866
-0.121959842535
-0.122104704152
-0.12226624924
-0.122448470711
-0.12265210645
-0.122878064379
-0.123126159989
-0.123395687903
-0.123686843069
-0.124000569055
-0.124337680393
-0.124699033713
-0.125082372796
-0.125480582579
-0.12589438941
-0.126325511438
-0.126770205671
-0.127234946575
-0.127721968195
-0.128223006587
-0.128738780111
-0.129279251514
-0.129849938447
-0.13044524464
-0.131056928335
-0.131679006395
-0.13230655721
-0.13293537598
-0.133561294489
-0.134180216758
-0.134788769578
-0.135382687034
-0.135953317607
-0.136490547104
-0.136993068361
-0.137456757856
-0.137870696875
-0.138229810676
-0.138533850996
-0.138784832288
-0.138987230891
-0.139145954363
-0.139264392333
-0.139368986085
-0.139497374633
-0.139676339401
-0.139892155572
-0.140106652226
-0.140292388799
-0.140442196577
-0.140563703964
-0.140667065211
-0.140756686281
-0.140832821727
-0.140898075759
-0.140951451531
-0.140991099304
-0.141017959229
-0.141034597548
-0.141040528463
-0.120918461826
-0.120920353083
-0.120922359381
-0.120927178115
-0.12093500911
-0.120948335707
-0.120968209493
-0.120984995545
-0.121003627863
-0.121028452491
-0.121061155494
-0.121102708456
-0.121153331025
-0.121212362504
-0.121280127101
-0.121358777691
-0.121450591036
-0.121556699
-0.121673117572
-0.121796702928
-0.12192955782
-0.122074956185
-0.122236334371
-0.122417284748
-0.122619826476
-0.122844789845
-0.123092069581
-0.123360963796
-0.123651492386
-0.123964305553
-0.124300663832
-0.124661050503
-0.125043341193
-0.125441994997
-0.12585236821
-0.126279694226
-0.126726081673
-0.127190207871
-0.127674666149
-0.128177999458
-0.128699757411
-0.129244951908
-0.129817142967
-0.130413072026
-0.131026275215
-0.131650830635
-0.13228166907
-0.132914324623
-0.13354453697
-0.134168155513
-0.134781079066
-0.135378141017
-0.13595194417
-0.136494993779
-0.137002552455
-0.137467764018
-0.137881952276
-0.138240969547
-0.138545005077
-0.138796715176
-0.139000998395
-0.139164400249
-0.139297663776
-0.139423386106
-0.13956334957
-0.139736698758
-0.139949039003
-0.140161823476
-0.140347229427
-0.140497068607
-0.140615933325
-0.140712699785
-0.140795323704
-0.140870123462
-0.14093521837
-0.140984409482
-0.141018197683
-0.141043467779
-0.141060769153
-0.141067856146
-0.120908858615
-0.1209091743
-0.120911572387
-0.120916335544
-0.120924729739
-0.120936578827
-0.120954223233
-0.120972453675
-0.1209918229
-0.121016221009
-0.121047716828
-0.12108828186
-0.121138031885
-0.121197511999
-0.121266461294
-0.1213435954
-0.121431008321
-0.121529943789
-0.121639835929
-0.121760308774
-0.121891889429
-0.122036102694
-0.122196304368
-0.122375947272
-0.122576981575
-0.122800506418
-0.123046394781
-0.123314260471
-0.123603886807
-0.123915772517
-0.124250706887
-0.124610599716
-0.124993323538
-0.125387846677
-0.125795304655
-0.126219781945
-0.126662878435
-0.127127255569
-0.127613254921
-0.128119759926
-0.128646700555
-0.129196723989
-0.129771813676
-0.130369809633
-0.130985625878
-0.131613701309
-0.132248886395
-0.132886519999
-0.133522224725
-0.134151688635
-0.134770339889
-0.135372667837
-0.135951924883
-0.136501173589
-0.137013731221
-0.137481509543
-0.137896989617
-0.138256979805
-0.138562396705
-0.138817011856
-0.139027238001
-0.139202155999
-0.139355676061
-0.139501930069
-0.139649353097
-0.139822544269
-0.140030477222
-0.140239799621
-0.140423483856
-0.140570394809
-0.140682129519
-0.140770973555
-0.140852647376
-0.14092966473
-0.140991250306
-0.141034545457
-0.141065674789
-0.141093203328
-0.141109568178
-0.141114885741
-0.12089145861
-0.120891308874
-0.120895214335
-0.120899901974
-0.12090867422
-0.12092057766
-0.120936790662
-0.120954774108
-0.120975130557
-0.120999541961
-0.121029452764
-0.121068827154
-0.121119878202
-0.121180455702
-0.121247139172
-0.121320233675
-0.121402050727
-0.121495218314
-0.121600531728
-0.121717509197
-0.121845866503
-0.121987753712
-0.122146277484
-0.122324320902
-0.122523582277
-0.122744831012
-0.122988950182
-0.123255281273
-0.123543806103
-0.123854548246
-0.124188485679
-0.124546391172
-0.124925582105
-0.12532024014
-0.125722792607
-0.126141814813
-0.126583462514
-0.127048842355
-0.127537139632
-0.128047295991
-0.128579235348
-0.129134342822
-0.129713527016
-0.130315050118
-0.130934748257
-0.131567494364
-0.13220816454
-0.132851977282
-0.133494444421
-0.134131098134
-0.134757083064
-0.135366711777
-0.135953335896
-0.136509663822
-0.137027774071
-0.137499269067
-0.137917693947
-0.138280928768
-0.138590899858
-0.138852699688
-0.139074140006
-0.139265710137
-0.139442463412
-0.139603755092
-0.139759447365
-0.139939091453
-0.140147708495
-0.140350965609
-0.140526851886
-0.140663826398
-0.140765588082
-0.140852346199
-0.140938370739
-0.141013170757
-0.141068518453
-0.141107010427
-0.141138841802
-0.141164904226
-0.14117813191
-0.141183392712
-0.120865201219
-0.120866956788
-0.120873267965
-0.120879996395
-0.120886728352
-0.120898360088
-0.120914846342
-0.120932743184
-0.120953430133
-0.12097773935
-0.121008009369
-0.121046284835
-0.121097459373
-0.121155579957
-0.121218523335
-0.121286821223
-0.121364122821
-0.121453545726
-0.121555010528
-0.1216669319
-0.121791155433
-0.121930375074
-0.122086506762
-0.122262026622
-0.122458896677
-0.122678472032
-0.122919081511
-0.123183347691
-0.123470633598
-0.123781295756
-0.124113192736
-0.124467328967
-0.124843305242
-0.12523148788
-0.125630976823
-0.126047465469
-0.126488493695
-0.126955101988
-0.127445974396
-0.127959964082
-0.1284969107
-0.129057463006
-0.129641788816
-0.130248232668
-0.130873180176
-0.131511882008
-0.132159310935
-0.132810646495
-0.133461331259
-0.134106777889
-0.134741928911
-0.135360871637
-0.135956662858
-0.13652138032
-0.137046413649
-0.137523644542
-0.137947811628
-0.138318000313
-0.138637167092
-0.138911178275
-0.139148738866
-0.139361064063
-0.139556758664
-0.139733765536
-0.139909631496
-0.140097615973
-0.140304795097
-0.140496102516
-0.140655672945
-0.140778602588
-0.140875458769
-0.140966926608
-0.141053705983
-0.141121940639
-0.141170813969
-0.141206252818
-0.14123745869
-0.141257581253
-0.14126491153
-0.141268792276
-0.12083459281
-0.120838134654
-0.120845116388
-0.120854450629
-0.120861126673
-0.120873061504
-0.120888298075
-0.120906144976
-0.120927283677
-0.120949344362
-0.120980743838
-0.121020543777
-0.121068743053
-0.121123114326
-0.121181597976
-0.121244970994
-0.121319015997
-0.121405290076
-0.121501562378
-0.121608120375
-0.12172788422
-0.121863576656
-0.122016621238
-0.122189657811
-0.122384000431
-0.122600200397
-0.122838790401
-0.123097294426
-0.123384162689
-0.123695289474
-0.124024332847
-0.124370932739
-0.124741444676
-0.125124623444
-0.125519934751
-0.125936274076
-0.126377823402
-0.126845680903
-0.127339093699
-0.127857023293
-0.128399136548
-0.128965593201
-0.129556047459
-0.130168756777
-0.130800384256
-0.131446463236
-0.132102103476
-0.132762518137
-0.13342312721
-0.134079251493
-0.134725641362
-0.135356071474
-0.135963103002
-0.136538205391
-0.13707254994
-0.137558742688
-0.137992794452
-0.138374610602
-0.138707228084
-0.138996472374
-0.139251523618
-0.139483219074
-0.139698770465
-0.139902869355
-0.140099179181
-0.140300676728
-0.140500321117
-0.140675551486
-0.140816120055
-0.140926616144
-0.141022592186
-0.141116770747
-0.14119818594
-0.141258944787
-0.14130166505
-0.141333752631
-0.141356606367
-0.141366849539
-0.141364944223
-0.141363390234
-0.120801362164
-0.120805861105
-0.120812542556
-0.120819554727
-0.120828018828
-0.120842291329
-0.120856595147
-0.120873843275
-0.120896194475
-0.120918397903
-0.120946072018
-0.12098635572
-0.12103292222
-0.121082737869
-0.121136937613
-0.121197561911
-0.121267411328
-0.121348748211
-0.121439647966
-0.121541290175
-0.121656343629
-0.121787356143
-0.12193570577
-0.122104793334
-0.122298343005
-0.122509550329
-0.122745032196
-0.123002855665
-0.123284043075
-0.123590773574
-0.12391765605
-0.124263249644
-0.124621263938
-0.124997101945
-0.125391406919
-0.125808209673
-0.126250559215
-0.126719750004
-0.127215675752
-0.127737628998
-0.128285169613
-0.128858079251
-0.12945562904
-0.130075928148
-0.130715734855
-0.131370766611
-0.132036291607
-0.132707616751
-0.133380173899
-0.134049202326
-0.134709258941
-0.135353749191
-0.135974710961
-0.136563175616
-0.137110499316
-0.137610209839
-0.13805922684
-0.1384568401
-0.13880473048
-0.139109042985
-0.13938133817
-0.139634499001
-0.139875739025
-0.14010702756
-0.140326830842
-0.140546813002
-0.140750144844
-0.140900611999
-0.141018399774
-0.141115701692
-0.141208547563
-0.14129930531
-0.141373694492
-0.141427961526
-0.141464540498
-0.14148759122
-0.14149429391
-0.141488182832
-0.141474081747
-0.141464274019
-0.120765206732
-0.120770203223
-0.120777576192
-0.120783403607
-0.120792198661
-0.120805669643
-0.120819364389
-0.120835273517
-0.120855586261
-0.120881597209
-0.120907764425
-0.120945218174
-0.120989294237
-0.121035267646
-0.121084559212
-0.121142671218
-0.121209529952
-0.121284827532
-0.12136937715
-0.121465736372
-0.121576228556
-0.121702569904
-0.121845725453
-0.122007947591
-0.122198745794
-0.122409128946
-0.122634691699
-0.122890506809
-0.123167382212
-0.123471303653
-0.123793878199
-0.124132732674
-0.12448504291
-0.124853501571
-0.125245434009
-0.125662471845
-0.126105712068
-0.126576333616
-0.127074775198
-0.127600809183
-0.128154067986
-0.128734055018
-0.12933969835
-0.129968922599
-0.130618492129
-0.131284239458
-0.131961591009
-0.132645988043
-0.133332904026
-0.1340175135
-0.134694182989
-0.135355991428
-0.135994535102
-0.136600656461
-0.13716610042
-0.137685109083
-0.13815440978
-0.138569700236
-0.138930731408
-0.139248523643
-0.1395410856
-0.13982327698
-0.140096030406
-0.140353215256
-0.140596833421
-0.140827350228
-0.141029165433
-0.141184145738
-0.141272331566
-0.141348138691
-0.141428194092
-0.141512874665
-0.141583812322
-0.14163487086
-0.141664613617
-0.141670990517
-0.141654055911
-0.141623512332
-0.141592544548
-0.141572672529
-0.120724734282
-0.120729267663
-0.120736708011
-0.120743285377
-0.120754129806
-0.120764529306
-0.120776905231
-0.120791769343
-0.120807154956
-0.120833489856
-0.120861028692
-0.120895844688
-0.120936980834
-0.120980460084
-0.121026136001
-0.121079782596
-0.12114264255
-0.121212402833
-0.121290656655
-0.121380667008
-0.121485702179
-0.121607732625
-0.121747966703
-0.121902990177
-0.122083203466
-0.122293829291
-0.122516177265
-0.122763849673
-0.123035207749
-0.123327010498
-0.123647585427
-0.123981851352
-0.124328106158
-0.124692102533
-0.125081771948
-0.125498367
-0.12594223446
-0.126414317127
-0.126915319239
-0.127445474348
-0.128004711533
-0.128592424009
-0.129207204602
-0.129846742849
-0.130507762977
-0.131186198871
-0.131877640056
-0.132577672666
-0.133281831968
-0.133985257152
-0.134682219362
-0.135365579994
-0.136026716083
-0.136656466517
-0.137246860173
-0.137791741463
-0.138286054576
-0.138717287078
-0.139086414442
-0.139418028222
-0.139739464812
-0.14006492425
-0.140378059819
-0.14065669025
-0.140914115056
-0.141146595906
-0.141343839355
-0.141506892403
-0.141577290539
-0.141621650915
-0.141671883542
-0.141757511343
-0.141835008174
-0.141889068233
-0.141911349075
-0.141894891522
-0.141844305119
-0.141776551651
-0.141718180133
-0.141682681373
-0.120679007
-0.120682204415
-0.12068700644
-0.120695592161
-0.120708547799
-0.120717448843
-0.120728640341
-0.120743291237
-0.12075573752
-0.120777709966
-0.120805324337
-0.120837903564
-0.120875500835
-0.120916588602
-0.120961277796
-0.121010410246
-0.121067547576
-0.121131279806
-0.121203336885
-0.121286393555
-0.121383800972
-0.121498923102
-0.121637772374
-0.12179179575
-0.121959712031
-0.122161373217
-0.122381764086
-0.12261814023
-0.122887365217
-0.123174198154
-0.123481606723
-0.123806769237
-0.124148092791
-0.124510934442
-0.124899049982
-0.125314720411
-0.125758850856
-0.126232354466
-0.126736041356
-0.127270405356
-0.127835804678
-0.128431840914
-0.129056846656
-0.129708163837
-0.130382446984
-0.131075774182
-0.131783929382
-0.132502629417
-0.133227461801
-0.133953634803
-0.13467548013
-0.135385942954
-0.136076529954
-0.136738109094
-0.137362020108
-0.137938568557
-0.13846331183
-0.138908577932
-0.139278819062
-0.139624816968
-0.139988499772
-0.140384877309
-0.140754359949
-0.141041000001
-0.141306917637
-0.141541715054
-0.141725579816
-0.141852920907
-0.141916673376
-0.141916208037
-0.141915703731
-0.142035473939
-0.142143142066
-0.142211444069
-0.142227730045
-0.142180244483
-0.142077802747
-0.14194383773
-0.141837596531
-0.141772461309
-0.12062816816
-0.120630120836
-0.120631497064
-0.120640683065
-0.120652244256
-0.120661913531
-0.120672681898
-0.12068677159
-0.120699024255
-0.120717355118
-0.120742373482
-0.120771807681
-0.120805268436
-0.12084186767
-0.120885110616
-0.120931788984
-0.120983577633
-0.121041125252
-0.121106889216
-0.121183043535
-0.121271957827
-0.121377058729
-0.121508558206
-0.121665044947
-0.121827456601
-0.122013416943
-0.122230662173
-0.122459678036
-0.122713982186
-0.122995331966
-0.123295665584
-0.123613389426
-0.123948453476
-0.124308629662
-0.124695245819
-0.125109936872
-0.125554041812
-0.126028734437
-0.12653521919
-0.127074130483
-0.12764597362
-0.128250788578
-0.128887011756
-0.129551644935
-0.130241157374
-0.130951828601
-0.131679706714
-0.132420602353
-0.133170146469
-0.13392373163
-0.134676136027
-0.135420955377
-0.136150380804
-0.136854899783
-0.137522078369
-0.138130422343
-0.138702620632
-0.139168728459
-0.139523359846
-0.139873172106
-0.140295585285
-0.140838098594
-0.141382599
-0.1416184554
-0.14189691484
-0.142151705348
-0.142326203087
-0.142367715093
-0.14233128345
-0.142278878764
-0.142076349372
-0.142318094498
-0.142494443149
-0.142601089551
-0.142626274491
-0.142542101757
-0.142359879028
-0.142108014986
-0.14192893097
-0.141807291672
-0.120573003258
-0.120574954087
-0.120577290609
-0.120582112874
-0.120590126113
-0.120599560705
-0.120609849223
-0.120622012439
-0.12063543259
-0.120650695237
-0.120672346442
-0.120698074062
-0.120727246624
-0.120758843612
-0.120796625611
-0.120840726877
-0.120888702508
-0.120940929646
-0.121000410094
-0.121069583663
-0.121150330778
-0.121244974321
-0.121364727031
-0.121517667565
-0.121680567691
-0.121852862227
-0.122060541857
-0.122285975367
-0.122525173504
-0.122793755627
-0.123083793906
-0.123393885711
-0.123726469733
-0.124084141656
-0.124468713449
-0.124882088967
-0.125326067125
-0.125801837376
-0.126310865785
-0.126854510259
-0.127433387835
-0.128047609924
-0.128695924007
-0.129375307926
-0.130082108248
-0.130812827959
-0.131563843398
-0.132330979178
-0.133109772779
-0.133896097142
-0.134685846059
-0.135474366199
-0.136255595
-0.137018698105
-0.137740271688
-0.138359921338
-0.13905534672
-0.139628162328
-0.139867279977
-0.140159660983
-0.140608337726
-0.141374429147
-0.141297494394
-0.141282631509
-0.141397484623
-0.141530649717
-0.141631336715
-0.141636473982
-0.141519906578
-0.141344843505
-0.141798808047
-0.142952532678
-0.143324840341
-0.143455038327
-0.143441439917
-0.14325464777
-0.142898066805
-0.142250585069
-0.141956850394
-0.14172085138
-0.120512666439
-0.120514736137
-0.120519073474
-0.120519424497
-0.120523940283
-0.120531922072
-0.120541139667
-0.120551869339
-0.120566588487
-0.120577789469
-0.120595405597
-0.120617148984
-0.120642080707
-0.120669311161
-0.120701142848
-0.120740259404
-0.120783515682
-0.120830402855
-0.120883461723
-0.120945217683
-0.121017810138
-0.121102971336
-0.121208777694
-0.121350767073
-0.121514942718
-0.121678861341
-0.121868830884
-0.122091673792
-0.122325957014
-0.122575155397
-0.122851630368
-0.123153326055
-0.123481010897
-0.123835360248
-0.12421746169
-0.124629200841
-0.125072584828
-0.125549400281
-0.126061086649
-0.126609349049
-0.127195598502
-0.127820072399
-0.128481520558
-0.129177013588
-0.129903073552
-0.130656718354
-0.131434686697
-0.132232531838
-0.13304542455
-0.133869974186
-0.134704604543
-0.135548482525
-0.136399217773
-0.137243341144
-0.138029662386
-0.138545989372
-0.139588770016
-0.139604441563
-0.139573097563
-0.139575641208
-0.139638311327
-0.139923105742
-0.140233857254
-0.140164823678
-0.139936880621
-0.139643522458
-0.139355619207
-0.139106437616
-0.138908536296
-0.138743196222
-0.138681527435
-0.13920306302
-0.139924689437
-0.140695992537
-0.141349101188
-0.14168884426
-0.141743728879
-0.142027748134
-0.142022635351
-0.141431099992
-0.120446400208
-0.120447882121
-0.12045064779
-0.120450176358
-0.120452420345
-0.1204588628
-0.12046612392
-0.120474120497
-0.120488671479
-0.120497553532
-0.120511269393
-0.120529063775
-0.120549989542
-0.120573298408
-0.120599372503
-0.120632049587
-0.120669250532
-0.12071006106
-0.120756158614
-0.120809930746
-0.120873613214
-0.120949311765
-0.12104243362
-0.121169248392
-0.12132759743
-0.121490464632
-0.12166110591
-0.121865995612
-0.122096040882
-0.122337468911
-0.122600139191
-0.122891079699
-0.123211590705
-0.123561112924
-0.123939849647
-0.124349164867
-0.124791471237
-0.125268819514
-0.125783159934
-0.126336223158
-0.126929987154
-0.127565389818
-0.128241246318
-0.128954315502
-0.129701356889
-0.130480634796
-0.131289818585
-0.132123475234
-0.132974872903
-0.133842008495
-0.134728982158
-0.135642003543
-0.13658780205
-0.137564931606
-0.138589086481
-0.138639652228
-0.138823101319
-0.139123069851
-0.139096816273
-0.138887815676
-0.13860384017
-0.138379639926
-0.138183866756
-0.137723617065
-0.137061451384
-0.136305263387
-0.135574521773
-0.134930620262
-0.134381013994
-0.133901274324
-0.133637597347
-0.13397330836
-0.134838972017
-0.136071013437
-0.137460997034
-0.138768178038
-0.139741654676
-0.140146186469
-0.140218343737
-0.140134240272
-0.12037530938
-0.120376138603
-0.120377925485
-0.120376001458
-0.120376839833
-0.120381197352
-0.120385907424
-0.12038980289
-0.120400413426
-0.120408700213
-0.120419352973
-0.120433317745
-0.120450464784
-0.120470572208
-0.120490242378
-0.120515948626
-0.120546272067
-0.120580288116
-0.120618658586
-0.120663759218
-0.120717680939
-0.120782825069
-0.120863600503
-0.120973622894
-0.121118471568
-0.121281381188
-0.121440573996
-0.121623767104
-0.121836009616
-0.122068406469
-0.12232108754
-0.122603138756
-0.122915615234
-0.123258937678
-0.123633435497
-0.124039839905
-0.124480252836
-0.124957604495
-0.125474162787
-0.126032061282
-0.12663358725
-0.127280312282
-0.127971681259
-0.12870410392
-0.129473982051
-0.130281617816
-0.131126629261
-0.132000938849
-0.1328936691
-0.133805131581
-0.134748809082
-0.135739722747
-0.136784711479
-0.137970203383
-0.138104867254
-0.138283432885
-0.138442820928
-0.13856474031
-0.13840904513
-0.138001007923
-0.137413435638
-0.13673391831
-0.135977590672
-0.135098476028
-0.134135339328
-0.133126920122
-0.132114364259
-0.131091518448
-0.130049653736
-0.129078949389
-0.12835374768
-0.128109985463
-0.128480563303
-0.129473525847
-0.131038198804
-0.133037948075
-0.1350443254
-0.136453989011
-0.137763354403
-0.140255779059
-0.120300758592
-0.120300685724
-0.120299882624
-0.120297314978
-0.12029788592
-0.120299968971
-0.120302167473
-0.120302462078
-0.120308348674
-0.120313421283
-0.120320136633
-0.120329579161
-0.120342058046
-0.120358789941
-0.120372193159
-0.12039073245
-0.120413712946
-0.120440641722
-0.120470658594
-0.120506415724
-0.120549750283
-0.120603201269
-0.12067092742
-0.120763708846
-0.120890460376
-0.121045245522
-0.121203046725
-0.121369221509
-0.121560288225
-0.12177538125
-0.122015293917
-0.122286752666
-0.122589627332
-0.122925415022
-0.123294776944
-0.123697517974
-0.124135795518
-0.124612554467
-0.12513098494
-0.125693405214
-0.126302571951
-0.126961195018
-0.127669389871
-0.128423339142
-0.129216969965
-0.130052444611
-0.130936691303
-0.131860359029
-0.132797765855
-0.133748993098
-0.134748106571
-0.135818832579
-0.136998727174
-0.137122614347
-0.137395279547
-0.137840151615
-0.137983491314
-0.137787041275
-0.137274285295
-0.136507071164
-0.135535441445
-0.134413041484
-0.13317093556
-0.131842236409
-0.130470161498
-0.129076129518
-0.127673684165
-0.126250717363
-0.124812487913
-0.123462557021
-0.122400322638
-0.121769273816
-0.121697223177
-0.122294735417
-0.123662585899
-0.125834234495
-0.128359401844
-0.130324411725
-0.13320753327
-0.143666021587
-0.120224218007
-0.120223230387
-0.12021959365
-0.120216663904
-0.120216462597
-0.120215917564
-0.120215144557
-0.120212769446
-0.120212918081
-0.120213017924
-0.12021448325
-0.120218311985
-0.120224574996
-0.120234781846
-0.120243326604
-0.120255027816
-0.12027020935
-0.120289255341
-0.120310909088
-0.12033706213
-0.120369243224
-0.12040979881
-0.12046359089
-0.120538530435
-0.120643876037
-0.120781047379
-0.120934231411
-0.121089499135
-0.121262211597
-0.121459737313
-0.121682919209
-0.121940108796
-0.12223200173
-0.12255775637
-0.122920377041
-0.123318537526
-0.123753600562
-0.124229312654
-0.124749275961
-0.125316410706
-0.125933311815
-0.126603503395
-0.127328530822
-0.128105572419
-0.128928762086
-0.129799856112
-0.130725848387
-0.131691201151
-0.132668485652
-0.133651010049
-0.134695911517
-0.135857503075
-0.135924781535
-0.136176224844
-0.136894650187
-0.137274895622
-0.137114197099
-0.136514379972
-0.135555588087
-0.134332428787
-0.132902423171
-0.131312429801
-0.129597272094
-0.12779369766
-0.125933260371
-0.124031556564
-0.122094299434
-0.120112830741
-0.118095681137
-0.116129562494
-0.114400686107
-0.113083495227
-0.112245549837
-0.111983550821
-0.112456739306
-0.113883548428
-0.116014774258
-0.117374799705
-0.117433301582
-0.121632399799
-0.120146825265
-0.120145154641
-0.120139840573
-0.120136370025
-0.120133869624
-0.120129866613
-0.120124745553
-0.120119655197
-0.12011360062
-0.120107761072
-0.12010313042
-0.120100540061
-0.120099893684
-0.120101411793
-0.120104125936
-0.120108847125
-0.1201157419
-0.120125505095
-0.120138060628
-0.120154402198
-0.120175228142
-0.12020195152
-0.120240698979
-0.120297287653
-0.120380082379
-0.120493971126
-0.120630652706
-0.120775926616
-0.120932701505
-0.121112748686
-0.121320431779
-0.121559200597
-0.121836103859
-0.122150508396
-0.122505537462
-0.122898584149
-0.123329555562
-0.123803137904
-0.124323675712
-0.124894969133
-0.125519977026
-0.126202279151
-0.126945959766
-0.127750716605
-0.128610510211
-0.129520733608
-0.130486793869
-0.131500718813
-0.132525791177
-0.133499919669
-0.134587206106
-0.134663996139
-0.134846017212
-0.135691883908
-0.136390801314
-0.136370466862
-0.135735462911
-0.1346395114
-0.133178029221
-0.131442399364
-0.129489752861
-0.127362797419
-0.125091348617
-0.12269883202
-0.120199293683
-0.117598383586
-0.114896935669
-0.112092020983
-0.109196374319
-0.106276338834
-0.103479048021
-0.100974735083
-0.0987533524586
-0.096747127505
-0.0950436788471
-0.0940160645289
-0.0935171458216
-0.0897323148071
-0.0745969416158
-0.0559559466549
-0.120068513239
-0.120066270168
-0.120059964722
-0.120055741352
-0.12005039297
-0.12004238615
-0.120032374246
-0.120023544624
-0.120010282994
-0.119997934302
-0.119986658585
-0.119977046021
-0.11996911124
-0.11996215214
-0.119956501119
-0.11995313299
-0.119951082296
-0.11995049263
-0.119952064833
-0.119957501847
-0.119966425304
-0.119978552347
-0.120000642929
-0.120038244271
-0.120098127599
-0.120186341823
-0.120301518625
-0.120433044388
-0.120579707611
-0.120738624728
-0.120926370428
-0.121146597562
-0.121404888717
-0.121700699157
-0.122042567188
-0.122430656793
-0.122857917117
-0.123329180583
-0.123848990121
-0.124422811245
-0.125055565311
-0.125751484131
-0.12651665578
-0.127351375535
-0.128244861712
-0.129193487718
-0.130211992756
-0.131314796843
-0.132445017713
-0.133308930535
-0.13348026038
-0.133603367986
-0.134411019487
-0.135320795547
-0.135556207414
-0.134971982215
-0.133766094875
-0.132096291843
-0.130065386314
-0.127751085769
-0.125200998543
-0.122448955831
-0.119517665812
-0.116422711944
-0.113172644843
-0.109772266726
-0.106224279824
-0.102530030726
-0.098697207456
-0.0947550473654
-0.0907673178102
-0.0868000798184
-0.0827773478955
-0.0783819624734
-0.0735012709364
-0.0684624481375
-0.0626246940456
-0.0491075640656
-0.0120686439544
0.0423229031971
-0.119988547429
-0.119985682709
-0.119978804273
-0.119973585964
-0.119965157365
-0.119952988397
-0.119938588409
-0.119924413699
-0.11990345412
-0.119884205611
-0.119865565358
-0.119848127989
-0.119832132167
-0.119816072226
-0.11980067228
-0.119787957473
-0.119776427297
-0.119764184208
-0.119753045612
-0.119745868641
-0.119741444191
-0.119738152556
-0.119741556668
-0.119759249537
-0.11979594623
-0.119856954109
-0.119946387371
-0.120056044347
-0.120189289984
-0.120333539205
-0.1204984672
-0.120693395614
-0.120931339106
-0.121212144221
-0.121534174121
-0.121908684687
-0.122330605798
-0.122798887679
-0.123318507323
-0.123894070074
-0.124532701949
-0.125243233018
-0.126032048393
-0.126894455774
-0.127814211015
-0.128796194996
-0.129884791252
-0.131167886322
-0.132848812594
-0.1325554992
-0.13263944623
-0.133224676556
-0.134186438466
-0.1346314541
-0.134211337965
-0.132972749347
-0.131127593255
-0.128825957604
-0.126167807674
-0.123220488182
-0.120026639017
-0.116618162139
-0.113020324124
-0.109254159723
-0.105335466866
-0.101273727618
-0.0970688309777
-0.0927084144487
-0.0881685769506
-0.0834140644187
-0.0783896630744
-0.0729983590898
-0.0670612889611
-0.0601649272256
-0.0520305712037
-0.0427619009764
-0.0305678406743
-0.00589161970731
0.0481324424185
0.116989774785
-0.119905611625
-0.11990210925
-0.119894614342
-0.119888012695
-0.119875960547
-0.119860088239
-0.119841386845
-0.119820577177
-0.11979260305
-0.119766764641
-0.119740113475
-0.119714004231
-0.119689001068
-0.11966282199
-0.119636369982
-0.119612656007
-0.119590799096
-0.119565400054
-0.119540388436
-0.119518903217
-0.119498527221
-0.11947938356
-0.119462744231
-0.11945845337
-0.119471589912
-0.119504928477
-0.119565465778
-0.119647472478
-0.119755961707
-0.11988630801
-0.120034038773
-0.120203475564
-0.120410031161
-0.120668179123
-0.120975442611
-0.121332661114
-0.12174333855
-0.122205063351
-0.122721922559
-0.123299291403
-0.123944571795
-0.12466905743
-0.125478776689
-0.126362212616
-0.127304970071
-0.128320274736
-0.129461293509
-0.130984484033
-0.131213491379
-0.131694551223
-0.131858605986
-0.133021259474
-0.133622274822
-0.13341122263
-0.132254418375
-0.130307046037
-0.127780303862
-0.124816010766
-0.121509795737
-0.117927309293
-0.114116083916
-0.110115480177
-0.105958972035
-0.101672896403
-0.097271891942
-0.0927533190524
-0.0880914084442
-0.0832350425429
-0.078110424555
-0.072618865704
-0.0666096849322
-0.0598330487808