/*--------------------------------*- C++ -*----------------------------------*\
| =========                 |                                                 |
| \\      /  F ield         | OpenFOAM: The Open Source CFD Toolbox           |
|  \\    /   O peration     | Version:  v1806                                 |
|   \\  /    A nd           | Web:      www.OpenFOAM.com                      |
|    \\/     M anipulation  |                                                 |
\*---------------------------------------------------------------------------*/
FoamFile
{
    version     2.0;
    format      ascii;
    class       volVectorField;
    location    "670";
    object      U;
}
// * * * * * * * * * * * * * * * * * * * * * * * * * * * * * * * * * * * * * //

dimensions      [0 1 -1 0 0 0 0];


internalField   nonuniform List<vector> 
6400
(
(-0.000113191179363 -0.000148505547273 0)
(-0.000300221225536 -0.000108512182845 0)
(-0.00043531817289 -8.4627405424e-05 0)
(-0.000578639817455 -7.27471926759e-05 0)
(-0.000683614842992 -4.61378536971e-05 0)
(-0.000759898149349 -2.61625252563e-05 0)
(-0.000803110306117 -1.85191947678e-05 0)
(-0.000839064888113 -2.81398250371e-05 0)
(-0.000926152136044 -3.89879568883e-05 0)
(-0.0010113049905 -3.64855512759e-05 0)
(-0.00105217477492 -3.25574726841e-05 0)
(-0.00112839125456 -3.37325159888e-05 0)
(-0.00119681556878 -2.99288807886e-05 0)
(-0.00125169331791 -2.40119561336e-05 0)
(-0.00129271946521 -2.13365928131e-05 0)
(-0.00133500231764 -2.38169483261e-05 0)
(-0.00138618690215 -2.43553547752e-05 0)
(-0.00143024439088 -2.09343525141e-05 0)
(-0.00146312738288 -1.63911649391e-05 0)
(-0.00149434585899 -1.45082848009e-05 0)
(-0.00153401751809 -1.91581172792e-05 0)
(-0.00158130406303 -2.39515122468e-05 0)
(-0.00163002037863 -2.443630068e-05 0)
(-0.0016735200161 -2.30596018027e-05 0)
(-0.00171365314754 -2.07482264084e-05 0)
(-0.001751657448 -1.82116448137e-05 0)
(-0.00178877248015 -1.68403259223e-05 0)
(-0.00182223436202 -1.51255517681e-05 0)
(-0.00185019020248 -1.28969894218e-05 0)
(-0.00187330770607 -1.11464936129e-05 0)
(-0.00189206813454 -1.0565473011e-05 0)
(-0.00191113195188 -9.56839263866e-06 0)
(-0.00193017799661 -7.86849493268e-06 0)
(-0.00194580351111 -7.62069800781e-06 0)
(-0.00196037242674 -7.39964098414e-06 0)
(-0.00197891489611 -6.97560426966e-06 0)
(-0.00199388242429 -7.0752630143e-06 0)
(-0.00199888460031 -6.19629323639e-06 0)
(-0.00201123377636 -4.39417460186e-06 0)
(-0.00202749667694 -3.12673143473e-06 0)
(-0.00203547850717 -4.0151078156e-06 0)
(-0.00203362361677 -3.10155761291e-06 0)
(-0.00202921954234 1.64056921947e-06 0)
(-0.00202327125849 5.10990394568e-06 0)
(-0.0020128992668 6.9092994397e-06 0)
(-0.00199854842198 8.94504351696e-06 0)
(-0.00197975838875 1.11780236551e-05 0)
(-0.00195556241485 1.39568583007e-05 0)
(-0.00192593069633 1.67233648052e-05 0)
(-0.00189062723766 1.76986345215e-05 0)
(-0.00185220326074 1.68493824301e-05 0)
(-0.00181575476486 1.92831744756e-05 0)
(-0.0017692129514 2.81606641194e-05 0)
(-0.00171506838683 3.41146846379e-05 0)
(-0.0016440577296 3.95588503515e-05 0)
(-0.00154788134987 4.74833912907e-05 0)
(-0.00144623894096 4.87409583369e-05 0)
(-0.00135547122344 4.87790408001e-05 0)
(-0.00126023751505 5.62759843287e-05 0)
(-0.00112903683813 6.31068410242e-05 0)
(-0.000993839769486 6.59105100903e-05 0)
(-0.000844130694036 8.23364745129e-05 0)
(-0.000704244461648 0.000119181787759 0)
(-0.000429802932128 0.000123122847618 0)
(-0.000182890240228 8.23995613509e-05 0)
(-5.60958313334e-05 5.63472103753e-05 0)
(3.08798248255e-05 4.47738776308e-05 0)
(0.000107304023814 3.8246793526e-05 0)
(0.000181176249516 3.36832066339e-05 0)
(0.000244677777134 2.74690210591e-05 0)
(0.000294966341197 1.90404552327e-05 0)
(0.000318528659029 8.42391266794e-06 0)
(0.000316654985056 -3.14374837993e-06 0)
(0.000314327394647 -1.57766465087e-05 0)
(0.000255985362572 -1.87151361985e-05 0)
(0.000237985069254 -2.072980259e-05 0)
(0.000163908548976 -1.43632193516e-05 0)
(0.000174901902635 -2.31628936947e-05 0)
(7.65841572676e-05 -1.78177649743e-05 0)
(5.74834960505e-05 -3.41825573615e-05 0)
(-4.3256854989e-05 -0.000211059314741 0)
(-0.000182976263528 -0.000233012342104 0)
(-0.000317389389069 -0.000206656585849 0)
(-0.000405376337337 -0.000165346070044 0)
(-0.00057767050449 -0.000159623573288 0)
(-0.000727306426741 -0.000112502885246 0)
(-0.000814411646671 -7.3204902053e-05 0)
(-0.00087533534978 -9.05817746308e-05 0)
(-0.000939968111783 -0.000113115902162 0)
(-0.00101120825242 -0.000109683989861 0)
(-0.00107815522449 -0.000101217966874 0)
(-0.00113926728463 -9.64662632323e-05 0)
(-0.00119579292374 -8.50447681202e-05 0)
(-0.00124601256073 -7.15105271885e-05 0)
(-0.00129430038339 -6.53088331657e-05 0)
(-0.00134011614543 -7.49695201086e-05 0)
(-0.0013865749044 -7.80034989101e-05 0)
(-0.00142528338023 -5.7916872289e-05 0)
(-0.00143269602808 -4.30225794306e-05 0)
(-0.00147140720018 -4.44691550977e-05 0)
(-0.00152192078503 -5.96749994349e-05 0)
(-0.00157518712643 -7.62575004621e-05 0)
(-0.00163141785318 -7.70210620181e-05 0)
(-0.00167839315098 -6.7655370383e-05 0)
(-0.00170918110336 -6.04106368309e-05 0)
(-0.0017518087463 -5.62232831651e-05 0)
(-0.00179105794041 -5.10871043352e-05 0)
(-0.00182246949557 -4.47375849521e-05 0)
(-0.00184943745646 -3.86129577432e-05 0)
(-0.00187347853999 -3.37331797009e-05 0)
(-0.00189388910234 -3.09985386538e-05 0)
(-0.00190765246766 -2.76339875403e-05 0)
(-0.00192657506339 -2.24170109941e-05 0)
(-0.00194129037552 -2.24466476129e-05 0)
(-0.00195368416855 -2.39110925116e-05 0)
(-0.00197826243212 -2.10038834467e-05 0)
(-0.0019901555414 -2.04922297779e-05 0)
(-0.00199531380852 -2.03729277998e-05 0)
(-0.00201170127509 -1.66214425906e-05 0)
(-0.00203539757236 -1.0586166663e-05 0)
(-0.00204479300313 -2.31661451335e-06 0)
(-0.00201020126682 5.16182359606e-06 0)
(-0.00198920025386 9.77858705307e-06 0)
(-0.00198741488957 1.32180545864e-05 0)
(-0.00197989757158 1.7143182256e-05 0)
(-0.00197122112592 2.23248110518e-05 0)
(-0.00195966763026 2.89957658899e-05 0)
(-0.00194052914558 3.67873743504e-05 0)
(-0.00191974552427 4.52685076586e-05 0)
(-0.00189167543615 5.33501945715e-05 0)
(-0.00184943194597 5.98406286287e-05 0)
(-0.00178670688619 6.59628340343e-05 0)
(-0.00172816206865 7.46301591176e-05 0)
(-0.00171465454605 9.20991716737e-05 0)
(-0.00163653006239 0.000114626260439 0)
(-0.00155141024678 0.000132217539478 0)
(-0.00148133210037 0.000141150108192 0)
(-0.00138942332075 0.000150343738799 0)
(-0.00128086624164 0.000170118386869 0)
(-0.00116272207359 0.000195176101615 0)
(-0.00102793536939 0.000223208928806 0)
(-0.000820770577846 0.000254290583749 0)
(-0.000679847476182 0.000350383755149 0)
(-0.000420580489376 0.000370304802141 0)
(-0.000192296686024 0.000270138230407 0)
(-5.33063340331e-05 0.000170499052659 0)
(3.61557158809e-05 0.000126415462423 0)
(0.000118409189976 0.000115486186918 0)
(0.000193303465768 0.000103496341804 0)
(0.000260488558529 8.53755831516e-05 0)
(0.000305812582964 5.55064646356e-05 0)
(0.000324334386314 1.96868058662e-05 0)
(0.000312133372924 -9.10116673894e-06 0)
(0.000316127047081 -3.42517012168e-05 0)
(0.000292903155989 -5.09809466555e-05 0)
(0.000262523262886 -5.99351828539e-05 0)
(0.000222621552893 -5.9291805203e-05 0)
(0.000180692453218 -7.05415915982e-05 0)
(0.000113257352215 -8.10506616028e-05 0)
(5.29980802595e-05 -0.000136607583665 0)
(-6.30289771716e-05 -0.000364018141512 0)
(-0.000175193453658 -0.00038946944458 0)
(-0.000271733596108 -0.000356235751371 -8.73972319516e-29)
(-0.000449778426596 -0.000351503110371 8.02818578206e-29)
(-0.000611749048269 -0.000339193237993 7.00564230017e-29)
(-0.000717312206922 -0.00027077577501 -6.36345828189e-29)
(-0.000793974589411 -0.000148560333312 6.35697879304e-29)
(-0.000857685669516 -0.000153918892608 -6.12313871023e-29)
(-0.000924704728844 -0.000184491785455 0)
(-0.00100017155219 -0.000185079637634 0)
(-0.00107322808766 -0.000171483892399 0)
(-0.00113735855501 -0.000154883696599 0)
(-0.00119401464281 -0.000135900498281 0)
(-0.00124303302755 -0.000121508097018 0)
(-0.00129263842611 -0.000113348259153 0)
(-0.00133911985727 -0.000101825287779 0)
(-0.00126911510919 -7.96633115539e-05 0)
(-0.00125014026661 -6.58702579357e-05 0)
(-0.00129433983348 -7.63537242418e-05 0)
(-0.00137599589292 -0.00010824688451 0)
(-0.00151664649883 -0.000136490035742 0)
(-0.00159045114428 -0.000138678540814 0)
(-0.00162304646621 -0.000126218935875 0)
(-0.0016699727671 -0.000112286118859 0)
(-0.00171705949426 -0.000102077472506 0)
(-0.00175448370154 -9.414838597e-05 0)
(-0.00178851952218 -8.41765469862e-05 0)
(-0.001820354937 -7.3684394539e-05 0)
(-0.00184801493424 -6.42429183933e-05 0)
(-0.00187112876585 -5.66382736114e-05 -1.12898606381e-28)
(-0.0018936650618 -5.00352674758e-05 1.09129733147e-28)
(-0.00190278689766 -4.41391458993e-05 0)
(-0.00191994207786 -3.77272195402e-05 0)
(-0.0019461909716 -3.34568003933e-05 0)
(-0.00193893857124 -3.81754122177e-05 0)
(-0.00196437062988 -3.98519661558e-05 0)
(-0.00199559692902 -3.42684771626e-05 0)
(-0.00198873295568 -3.33481508131e-05 0)
(-0.00200733420113 -3.318504529e-05 0)
(-0.00203329365032 -2.22631677747e-05 0)
(-0.00204392131044 -9.95985983055e-07 0)
(-0.00204033127954 1.51219328532e-05 0)
(-0.00203370194922 1.92519863379e-05 0)
(-0.002026736313 2.18926061602e-05 0)
(-0.00201619202471 2.78843171345e-05 0)
(-0.00200145334103 3.62045527304e-05 0)
(-0.00198264440248 4.69248950435e-05 0)
(-0.00195957243373 5.90911564686e-05 0)
(-0.00193221927649 7.26807667818e-05 0)
(-0.0018999851126 8.84686925806e-05 0)
(-0.00186204891666 0.000104869377289 0)
(-0.00181816115373 0.000117727115625 0)
(-0.00176846314928 0.00012782838635 0)
(-0.00170431005566 0.00015122050729 0)
(-0.00162641021025 0.000182776660847 0)
(-0.00155934851784 0.000206985570698 0)
(-0.00148022402259 0.000227881764067 0)
(-0.00138224999613 0.000253597767423 0)
(-0.00126919650583 0.000286582345157 0)
(-0.00114129414479 0.000328742083107 0)
(-0.000989635540649 0.000385647119325 0)
(-0.00082108938312 0.000468052191758 0)
(-0.000636330503156 0.000590641010273 0)
(-0.000390622599791 0.000572813369394 0)
(-0.000173156025786 0.00039955321648 0)
(-4.1602867636e-05 0.000286359904993 0)
(5.88780901852e-05 0.000230500617522 0)
(0.000142025669747 0.000195711587508 0)
(0.000212368421064 0.000167536880558 0)
(0.000270845376254 0.000131791071313 0)
(0.000311297686918 8.4221364364e-05 0)
(0.00033560118694 3.51079430306e-05 0)
(0.000357108551997 -5.98033950904e-06 0)
(0.000356334431768 -4.94791616489e-05 0)
(0.000321384635898 -8.66137863917e-05 0)
(0.000274103516557 -0.000103113329068 0)
(0.000223734321389 -0.000108053020858 0)
(0.000176038301006 -0.00013328931961 0)
(0.000123152874928 -0.000188413314628 0)
(3.22863484126e-05 -0.000192568239933 0)
(-6.26108477292e-05 -0.00053470586782 0)
(-8.82407410671e-05 -0.00037279438381 0)
(-0.000222219298179 -0.000532130275724 0)
(-0.000387105524768 -0.000520522328759 0)
(-0.000536330673246 -0.000441136732856 0)
(-0.000333498641553 -0.000183527462992 0)
(-0.00042314209538 -0.000183162411113 0)
(-0.000745678942394 -0.000303294583296 0)
(-0.00087985504116 -0.000304085915906 0)
(-0.00097546618006 -0.000273835089448 0)
(-0.00106112621704 -0.000248356586997 0)
(-0.00113302769753 -0.000219830338217 0)
(-0.00119379087909 -0.000190708135142 0)
(-0.00123685304966 -0.000153760411479 0)
(-0.00120381521191 -0.00010897597303 0)
(-0.00116699546505 -7.96715457454e-05 0)
(-0.00117589430157 -7.8410405113e-05 0)
(-0.00124338376097 -0.000114269184846 0)
(-0.00137605103575 -0.000169181946634 0)
(-0.00148973983247 -0.000212560052314 0)
(-0.00153496479693 -0.000214065523688 0)
(-0.00158189621009 -0.000193011394272 0)
(-0.00163155990556 -0.000173648842411 0)
(-0.00167539092915 -0.000158264791232 0)
(-0.00171501424707 -0.0001434754354 0)
(-0.00175109433589 -0.00012943273951 0)
(-0.00178423573376 -0.000116251538103 0)
(-0.00181834575724 -0.00010297129641 0)
(-0.00184387891636 -9.01095985711e-05 0)
(-0.00187182519419 -7.89578602961e-05 0)
(-0.00188472355831 -6.92077225541e-05 0)
(-0.00190786516648 -5.93223789314e-05 0)
(-0.001907248846 -4.91883369662e-05 0)
(-0.00192824130783 -4.77760234255e-05 0)
(-0.00196212981509 -5.3334597955e-05 0)
(-0.00195955054047 -5.83938241845e-05 0)
(-0.00198937374072 -5.58387162301e-05 0)
(-0.00201792350699 -5.10483354045e-05 0)
(-0.00202906532598 -4.6432488075e-05 0)
(-0.00203693796131 -3.10006491811e-05 0)
(-0.00204223708055 -7.04766154103e-06 0)
(-0.00204194275099 1.2898711454e-05 0)
(-0.00203777386002 2.38452471636e-05 0)
(-0.00203079526499 3.17280870832e-05 0)
(-0.0020199458495 4.14131487234e-05 0)
(-0.00200498261052 5.36340964898e-05 9.69308519228e-29)
(-0.00198595659933 6.81683027698e-05 -9.74729876045e-29)
(-0.00196271486102 8.45704160118e-05 0)
(-0.00193507770231 0.000102825290815 0)
(-0.00190258007054 0.000122893283531 0)
(-0.00186443324433 0.000143571464955 0)
(-0.00181952828672 0.000163975875079 0)
(-0.00176664440266 0.000187642511243 0)
(-0.00170402012236 0.000219285077906 0)
(-0.00163385197367 0.000252809315455 0)
(-0.00155830229028 0.000285009784417 0)
(-0.00147168771624 0.000321119913739 0)
(-0.00136850270623 0.000363528894498 1.86038793819e-28)
(-0.00124719639965 0.000414855679281 -2.15998018548e-28)
(-0.0011052491394 0.000479728868626 0)
(-0.000938468089652 0.000563306891124 0)
(-0.000751708811503 0.000670231281259 0)
(-0.000562888599469 0.00076649828087 0)
(-0.000382980994914 0.000759273001987 0)
(-0.000187439749187 0.000611253317742 0)
(-2.00977164163e-05 0.000408824896037 0)
(8.52144331576e-05 0.000315036092401 0)
(0.000172739773144 0.000270735119154 0)
(0.000246879236109 0.000231524859965 0)
(0.000314567276105 0.000186873251223 0)
(0.000369832963064 0.000128359988952 0)
(0.000406334513342 6.19483108047e-05 0)
(0.00040527997236 -1.27318858285e-05 0)
(0.000351982102688 -8.14002911149e-05 0)
(0.000304968469139 -0.000128804373791 0)
(0.000256896906027 -0.000159872632792 0)
(0.000194504728559 -0.000170800538798 0)
(0.000115461184598 -0.000158736174831 0)
(8.41433274979e-05 -0.000217291115892 0)
(2.84249572854e-05 -0.00025766904117 0)
(-1.01728877387e-05 -0.000545906638479 0)
(-4.90214827867e-05 -0.000453115095451 0)
(-0.00019837219956 -0.000688775932448 0)
(-0.000332655500517 -0.000635627034943 0)
(-0.000378628658213 -0.000434880661607 0)
(-0.00031109720056 -0.00024797673501 0)
(-0.000515878012263 -0.000385633257279 0)
(-0.000734981383207 -0.000495596750322 0)
(-0.000831032344257 -0.000434040867669 0)
(-0.000941182380455 -0.000375694119047 0)
(-0.0010360072045 -0.00033975946041 0)
(-0.00111667622541 -0.000294852857681 0)
(-0.00114219539936 -0.000214949874254 0)
(-0.00108311818931 -0.000132337660992 0)
(-0.00110752315841 -0.000102189576334 0)
(-0.00116907058414 -0.000114212997572 0)
(-0.00126565146633 -0.000160004446656 0)
(-0.00137491707251 -0.000222045467488 0)
(-0.00145003279688 -0.000261645731996 0)
(-0.00148181793999 -0.000264322628189 0)
(-0.00152952803093 -0.000257239291468 0)
(-0.00158396589258 -0.000243585222831 0)
(-0.00163017353409 -0.000222687574141 0)
(-0.00167314550057 -0.000201025599275 0)
(-0.00171187060941 -0.000181536704507 0)
(-0.00174640203327 -0.000164906452531 0)
(-0.00178334725628 -0.000148703520659 0)
(-0.00180957566357 -0.000132239365773 0)
(-0.00184504531095 -0.000116006486578 0)
(-0.00185830729386 -0.000100106009732 0)
(-0.00189000046399 -8.66268524943e-05 -1.08466738766e-28)
(-0.0018770763414 -7.39018830279e-05 1.03439134851e-28)
(-0.00191462686509 -6.78337888239e-05 0)
(-0.00194802076087 -6.61779528575e-05 0)
(-0.00195177969948 -7.20261253041e-05 0)
(-0.00198740043964 -8.0376493093e-05 0)
(-0.00200826824379 -8.0554196987e-05 0)
(-0.00202307722532 -6.95424928371e-05 0)
(-0.00203310282818 -5.42372461277e-05 0)
(-0.00203998836533 -3.45256709323e-05 0)
(-0.00204466006245 -1.04973669916e-05 0)
(-0.00204565842493 1.15128955024e-05 0)
(-0.00204268728688 2.76343078979e-05 0)
(-0.00203591472153 4.07984563995e-05 0)
(-0.00202501903269 5.47856663855e-05 0)
(-0.00200998420887 7.09680304482e-05 0)
(-0.00199083300955 8.94689827233e-05 0)
(-0.00196740581552 0.000110115479364 0)
(-0.00193941356203 0.00013293029394 0)
(-0.00190635563019 0.000157897246283 0)
(-0.00186741892001 0.000184613636125 0)
(-0.00182141849832 0.000213313093174 0)
(-0.00176711778339 0.000246094576565 0)
(-0.00170377912797 0.000284274097667 0)
(-0.00163233367652 0.000325486461616 0)
(-0.00155232507883 0.000370088006355 0)
(-0.00145878974547 0.000421893248642 0)
(-0.00134634988496 0.000483693175595 0)
(-0.00121155199971 0.000558448176478 0)
(-0.00105196207119 0.000649536558796 0)
(-0.000869308659503 0.000755679003299 0)
(-0.000679157530431 0.000861258417067 0)
(-0.000505160559921 0.000922943904136 0)
(-0.000351699484201 0.000931505966858 0)
(-0.000168535388341 0.000807962410886 0)
(-1.71815982728e-06 0.000572774667416 0)
(0.000118343120375 0.000433883028537 0)
(0.000215830733285 0.000358259635689 0)
(0.000296080990819 0.000301526786688 0)
(0.000371556754765 0.000247361926749 0)
(0.000443557454892 0.000176861633653 0)
(0.000466777963481 6.67389150128e-05 0)
(0.000410513156391 -5.00027077975e-05 0)
(0.000360754952959 -0.000132253290714 0)
(0.000308421141808 -0.000190466491547 0)
(0.000245300088519 -0.000229911386614 0)
(0.000168495909441 -0.000224534686505 0)
(0.000108273947914 -0.000214648042306 0)
(7.08576687087e-05 -0.000281313328045 0)
(1.91044025465e-05 -0.000297230195496 0)
(-1.44622263292e-06 -0.000515957752944 0)
(-5.68953511352e-05 -0.000548876425667 0)
(-0.000197783363124 -0.000788994483365 0)
(-0.000284196017598 -0.000673689857316 0)
(-0.000228929726992 -0.000352867936721 0)
(-0.000314653151069 -0.000357342530218 0)
(-0.000611859019533 -0.000603518353806 0)
(-0.00070277683711 -0.000605598313412 0)
(-0.000795177859415 -0.000541786198493 0)
(-0.000900326850597 -0.000483555797166 0)
(-0.000999918860383 -0.000415512122961 0)
(-0.000970726260433 -0.000297477793976 0)
(-0.000910263697796 -0.000181615488948 0)
(-0.00097609131392 -0.00015223576807 0)
(-0.00105771987882 -0.000169840660428 0)
(-0.00119281383596 -0.000221765298839 0)
(-0.00131727086607 -0.000273870203653 0)
(-0.00139710638515 -0.000298003604803 0)
(-0.0014199105826 -0.000297389342042 0)
(-0.00147437215708 -0.000306802243002 0)
(-0.00153457699912 -0.000309802897591 0)
(-0.00158176646877 -0.000293174317269 0)
(-0.00162601211569 -0.000268645088535 0)
(-0.00166720101561 -0.000243845262138 0)
(-0.00171046602467 -0.000220873193992 0)
(-0.00174515531128 -0.000198015889246 0)
(-0.00176567330177 -0.000179818162251 0)
(-0.00181306599483 -0.000162543577598 0)
(-0.00182046568643 -0.000139923696882 0)
(-0.00186688306748 -0.000118691231596 0)
(-0.00184286207719 -9.86030370138e-05 0)
(-0.00189371752278 -9.38964161981e-05 0)
(-0.00187849676432 -9.01830256462e-05 0)
(-0.00193374587726 -9.35054085959e-05 0)
(-0.00198012989913 -0.000101429734077 0)
(-0.00200170699973 -0.000106065981044 0)
(-0.00201614568545 -9.74249054809e-05 0)
(-0.00202807690186 -8.13248736204e-05 0)
(-0.0020373970107 -6.18608548426e-05 0)
(-0.00204439509275 -3.92741309136e-05 0)
(-0.00204906883026 -1.40414237274e-05 0)
(-0.00205060824544 1.02665500339e-05 0)
(-0.00204832269239 3.09598230168e-05 0)
(-0.00204187580625 4.93050014241e-05 0)
(-0.00203114455692 6.79220114708e-05 0)
(-0.00201616542262 8.83136620968e-05 0)
(-0.00199696258716 0.000110955803832 0)
(-0.00197332180055 0.000135966775726 0)
(-0.00194484490289 0.000163518058233 0)
(-0.00191098331746 0.000193795305193 0)
(-0.00187093368768 0.000226959867195 0)
(-0.0018235910986 0.000263625248428 0)
(-0.00176785501809 0.000304987307412 0)
(-0.00170302960439 0.000351547916391 0)
(-0.00162865224777 0.000403217516115 0)
(-0.00154241540737 0.000462376083453 0)
(-0.00143918130644 0.000533046751561 0)
(-0.00131382496028 0.000618107412688 0)
(-0.00116373321257 0.000718768805239 0)
(-0.000989998247077 0.00083159056683 0)
(-0.000803284746693 0.000944049721489 0)
(-0.000622680938479 0.00102712210901 0)
(-0.000444785708126 0.00104157348217 0)
(-0.000312646922176 0.00111572345127 0)
(-0.00012617559319 0.000954512906445 0)
(2.62512721605e-05 0.000701853007469 0)
(0.000151566470284 0.000548740382294 0)
(0.000267051998032 0.000453443881191 0)
(0.000363176314521 0.00038108059658 0)
(0.000463114765721 0.000323290182298 0)
(0.000536398586175 0.000213073467299 0)
(0.000500288794399 3.90700310082e-05 0)
(0.000440435977858 -9.86285770275e-05 0)
(0.000391891779393 -0.00019546715042 0)
(0.000317725140483 -0.000265512933774 0)
(0.000242791911281 -0.000306502008101 0)
(0.000157387562459 -0.000277106252773 0)
(0.000101448498348 -0.000266212271626 0)
(6.28387708115e-05 -0.00032871693315 0)
(1.81078975835e-05 -0.00033254765456 0)
(-2.02030488825e-05 -0.000562181412309 0)
(-0.000117000473312 -0.000705058390599 0)
(-0.000248871326224 -0.000863420261013 0)
(-0.000293754341105 -0.000810822769479 0)
(-0.000220315719289 -0.00044702222173 0)
(-0.00043437928801 -0.000611442935742 0)
(-0.000615450872093 -0.00073099460124 0)
(-0.00067746469924 -0.000689684433143 0)
(-0.000766286111662 -0.000630264080654 0)
(-0.000834168404397 -0.000568494941544 0)
(-0.000966002631027 -0.000471079222298 2.89938268085e-28)
(-0.00080446969351 -0.000255374383294 -1.88784879486e-28)
(-0.000901809332004 -0.000223012367982 0)
(-0.000960234201595 -0.000232433475146 0)
(-0.00109263524261 -0.000287992628469 0)
(-0.00123828181816 -0.000354723731539 0)
(-0.00132729977189 -0.000365762372689 0)
(-0.00133854545857 -0.000337391514661 0)
(-0.00140458069754 -0.000345374290074 0)
(-0.00148045706145 -0.000366066207302 0)
(-0.00152768775705 -0.000361600092792 0)
(-0.00157635308435 -0.00034065654977 0)
(-0.00162288946925 -0.000314401897485 0)
(-0.00166606879677 -0.000285729368842 0)
(-0.00169906081279 -0.000255799059363 0)
(-0.00172531559684 -0.000227789731576 0)
(-0.00177185048671 -0.000208848973957 0)
(-0.00176947738685 -0.00018955012055 0)
(-0.00183271187662 -0.000165020745222 0)
(-0.00180386287279 -0.000128396770948 0)
(-0.00186615819929 -0.000118335029778 0)
(-0.00185233107092 -0.000117229949752 1.02196763292e-28)
(-0.00190821644825 -0.000120385530945 -1.03266843652e-28)
(-0.00194209581581 -0.000132229147173 0)
(-0.00199150272085 -0.000137105300868 0)
(-0.00201031123659 -0.000127272195224 0)
(-0.00202222356629 -0.000111115039656 0)
(-0.0020331511433 -9.1681452426e-05 0)
(-0.00204278362473 -6.95472775642e-05 0)
(-0.00205022236968 -4.46803952741e-05 0)
(-0.00205505321183 -1.76890880437e-05 0)
(-0.0020568960192 9.18781751068e-06 0)
(-0.00205503358191 3.40688906457e-05 0)
(-0.00204892854906 5.73531820503e-05 0)
(-0.00203843792908 8.07284504758e-05 0)
(-0.00202359730784 0.000105568242018 0)
(-0.00200435843066 0.000132597136078 0)
(-0.00198041210486 0.000162220882681 0)
(-0.00195128392802 0.000194814800931 0)
(-0.00191641696774 0.000230798676092 0)
(-0.00187505344301 0.000270691407883 0)
(-0.00182616293764 0.000315266025968 0)
(-0.00176861632595 0.000365473050894 0)
(-0.00170122808264 0.000422221900541 0)
(-0.00162217694287 0.000487251585611 0)
(-0.00152784276956 0.000564247698741 0)
(-0.00141307617855 0.000657033706355 0)
(-0.00127402658574 0.000766610732642 0)
(-0.00111165473708 0.000888758169837 0)
(-0.000934256924637 0.00101278021707 0)
(-0.0007550437188 0.00111905992395 0)
(-0.000585844719961 0.00118847357112 0)
(-0.000427067157177 0.00123731323134 0)
(-0.000287874350892 0.00125312023934 0)
(-0.000115224248136 0.00110766817649 0)
(6.29076227999e-05 0.000823932528679 0)
(0.000209358721733 0.00068849401857 0)
(0.000349830310203 0.00058898870112 0)
(0.000471418226011 0.000499597683519 0)
(0.000576053184219 0.000397664840181 0)
(0.000609459407166 0.000212953219285 0)
(0.000554869344784 1.78675290648e-06 0)
(0.000511714929888 -0.000158764258023 0)
(0.000435428398757 -0.000278676271635 0)
(0.000337790319677 -0.00036107824479 0)
(0.000236397439694 -0.000375240937133 0)
(0.000157225271771 -0.000349551482343 0)
(8.79283538812e-05 -0.000319481902412 0)
(4.94042448489e-05 -0.000365300772907 0)
(1.62769732309e-05 -0.000372933428259 0)
(-3.95030965255e-05 -0.000654866589532 0)
(-0.000159512969803 -0.000848208084075 0)
(-0.000274212765056 -0.000907241942337 0)
(-0.000198873509038 -0.000587399505908 0)
(-0.000233092883073 -0.000555710258738 0)
(-0.000486353122249 -0.000818151439776 0)
(-0.000573607449792 -0.000815239660304 0)
(-0.000656321905305 -0.000773228147906 0)
(-0.000719276217085 -0.00069945221057 0)
(-0.000810383896118 -0.000631341021641 0)
(-0.000703692386029 -0.000395240593585 0)
(-0.000795088546131 -0.000305697760512 0)
(-0.000882858577756 -0.000298375808264 0)
(-0.000960255488272 -0.000332633132072 0)
(-0.00114454921116 -0.00042511752595 0)
(-0.00124988551309 -0.000452110008604 0)
(-0.00125256790142 -0.000404967583637 0)
(-0.0013146142902 -0.000391945032967 0)
(-0.00141044219863 -0.000417625160306 0)
(-0.00147322415105 -0.0004251390092 0)
(-0.00151869382707 -0.000410456445198 0)
(-0.00156420294834 -0.000387233479893 0)
(-0.00161412428845 -0.000361815660492 0)
(-0.00165723169754 -0.00032945551701 0)
(-0.00170339331666 -0.000289152595043 0)
(-0.00171239373277 -0.000260414597019 0)
(-0.00177271462641 -0.000237084608651 0)
(-0.00178038615154 -0.000209134594017 0)
(-0.00177667915466 -0.000180875680719 0)
(-0.00181176674831 -0.00015945946348 0)
(-0.0018853198766 -0.000149102958168 0)
(-0.00187941345371 -0.00013978431236 0)
(-0.00189827568765 -0.000157339955963 0)
(-0.00197338193389 -0.000173249687015 0)
(-0.00199722898986 -0.000166854085393 0)
(-0.00201429903598 -0.000146347506583 0)
(-0.00202791071262 -0.000124390113651 0)
(-0.00203928167439 -0.000102079355934 0)
(-0.00204927163574 -7.77564089097e-05 0)
(-0.00205722977596 -5.07166312484e-05 0)
(-0.00206241707361 -2.15480143233e-05 0)
(-0.00206450019195 8.15116137084e-06 0)
(-0.0020629658305 3.7017664921e-05 0)
(-0.00205723220617 6.50308957427e-05 0)
(-0.00204704874718 9.32125234104e-05 9.41230869297e-29)
(-0.00203238164237 0.000122721983008 -9.38194418212e-29)
(-0.00201306975499 0.000154442019502 0)
(-0.00198869991234 0.0001890184252 0)
(-0.00195875605758 0.000227013156853 0)
(-0.00192270888184 0.000269047357568 0)
(-0.00187984720445 0.000315918218935 0)
(-0.00182915121989 0.00036867075332 0)
(-0.00176928946561 0.000428636997251 0)
(-0.00169835990065 0.000497720127978 0)
(-0.00161333035495 0.000579064921284 0)
(-0.00150982454815 0.000676720782403 0)
(-0.00138354794638 0.000792848112916 0)
(-0.00123340437523 0.000924621820404 0)
(-0.00106499129525 0.00106181550487 0)
(-0.000889066792992 0.00118984890485 0)
(-0.000716111245597 0.00128976616734 0)
(-0.000552445699928 0.0013543133379 0)
(-0.00040088390082 0.00138362851143 0)
(-0.000268240608062 0.00137284498349 0)
(-0.000134678634644 0.00135109821508 0)
(8.59695436727e-05 0.00100335249224 0)
(0.000274960051469 0.000837311682202 0)
(0.000440739655659 0.000728953170024 0)
(0.000571260715768 0.000604560747428 0)
(0.000667979523805 0.000445693465521 0)
(0.000690276430229 0.00020943581858 0)
(0.000663032119564 -3.19871434317e-05 0)
(0.000613394526563 -0.000238991990221 0)
(0.000496039883907 -0.000395762416762 0)
(0.000358826448402 -0.000479096569203 0)
(0.000229350043675 -0.000466080782097 0)
(0.000140816334753 -0.00043276210083 0)
(6.45935804015e-05 -0.000385462740629 0)
(2.30879461192e-05 -0.000394681374739 0)
(6.27712296591e-06 -0.000404539135973 0)
(-5.37034236248e-05 -0.00076883354793 0)
(-0.000177294321065 -0.000962494519802 0)
(-0.000237996757603 -0.000946197965212 0)
(-0.000193093928764 -0.000644788772336 0)
(-0.000308378135216 -0.000723077845213 0)
(-0.000492690037891 -0.000923673247275 0)
(-0.000537436788367 -0.000894545761213 0)
(-0.000637343833044 -0.00085269853467 0)
(-0.00063960491385 -0.000722165165767 0)
(-0.000814204888569 -0.000710698601768 0)
(-0.000684115265969 -0.000439229968831 0)
(-0.00079848196327 -0.00039093577635 0)
(-0.000873545987647 -0.00038947864134 0)
(-0.00101162488182 -0.000466836961182 0)
(-0.00115533834869 -0.000545578549649 0)
(-0.00123302218485 -0.000519949377682 0)
(-0.00123570417374 -0.000455692589087 0)
(-0.00131779240273 -0.000466102531731 0)
(-0.00140018440204 -0.000488417335077 0)
(-0.00145932963824 -0.000482526305234 0)
(-0.00151243112284 -0.000460431743662 0)
(-0.00155503555163 -0.000431719890155 0)
(-0.0016022651114 -0.000404142774944 0)
(-0.00162937125026 -0.00037045043254 0)
(-0.00165891339475 -0.000319801165093 0)
(-0.00172592410324 -0.000290303813872 0)
(-0.00169702967389 -0.000263375009469 0)
(-0.00180284066741 -0.00023715375401 0)
(-0.00176969594065 -0.000208377625709 0)
(-0.00185805790997 -0.000199461342176 0)
(-0.00182894629156 -0.000176527923668 0)
(-0.00191595369117 -0.000176225532611 0)
(-0.00195130878642 -0.000195663421598 1.07509733946e-28)
(-0.00197953736955 -0.000206125150389 -1.07111192044e-28)
(-0.00200114180443 -0.000189561280161 0)
(-0.00201896170669 -0.000164270774821 0)
(-0.00203414123212 -0.000138621059274 0)
(-0.0020464773103 -0.000113299613818 0)
(-0.00205686795434 -8.66048585193e-05 0)
(-0.00206523930952 -5.73505575567e-05 0)
(-0.00207092482677 -2.5752456906e-05 0)
(-0.00207341973875 6.98745008179e-06 0)
(-0.00207224433664 3.97639838806e-05 0)
(-0.00206690890296 7.23590626352e-05 0)
(-0.00205711524455 0.000105387268739 0)
(-0.0020426531097 0.000139806974052 0)
(-0.00202320337638 0.000176570526837 0)
(-0.00199828772762 0.00021649223815 0)
(-0.00196739178056 0.000260272796959 0)
(-0.00193001647137 0.000308693888531 0)
(-0.00188549652147 0.000362852500057 0)
(-0.00183279736728 0.000424310159268 0)
(-0.0017703041496 0.000495266316011 0)
(-0.00169534873323 0.000578846420309 0)
(-0.0016039374785 0.000678995131967 0)
(-0.00149153666118 0.00079875655428 0)
(-0.00135560426891 0.000936982991108 0)
(-0.00119771450583 0.00108790437545 0)
(-0.00102572036505 0.00123732866347 0)
(-0.000849816665793 0.00136834337344 0)
(-0.000681646180646 0.00145896353702 0)
(-0.000522258987944 0.00151247304133 0)
(-0.000368519616142 0.0015282699161 0)
(-0.000222939702036 0.00151002776996 0)
(-0.000103685457785 0.00146294768977 0)
(8.10984285356e-05 0.00130575033811 0)
(0.000321847298038 0.000973358764743 0)
(0.000539522621425 0.000888196089638 0)
(0.000683345664851 0.000728319253798 0)