/*--------------------------------*- C++ -*----------------------------------*\
| =========                 |                                                 |
| \\      /  F ield         | OpenFOAM: The Open Source CFD Toolbox           |
|  \\    /   O peration     | Version:  v1806                                 |
|   \\  /    A nd           | Web:      www.OpenFOAM.com                      |
|    \\/     M anipulation  |                                                 |
\*---------------------------------------------------------------------------*/
FoamFile
{
    version     2.0;
    format      ascii;
    class       volScalarField;
    location    "390";
    object      alpha;
}
// * * * * * * * * * * * * * * * * * * * * * * * * * * * * * * * * * * * * * //

dimensions      [0 0 -1 0 0 0 0];


internalField   nonuniform List<scalar> 
6400
(
0.854496718614
1.31751008627
2.04933409394
2.44320851614
2.82750226069
3.23594743337
3.83941426545
4.53308479302
4.78073539956
5.24054897328
6.39321322408
7.03936230074
7.54757691206
8.17102870292
9.02457624993
9.9096935861
10.6281420483
11.3081191126
11.8910142287
12.1683494718
12.1712506294
12.2417581392
12.6149786979
13.317467774
14.1180339419
14.8086694003
15.3145028488
15.7677637612
16.2898728799
16.8939895748
17.5258166665
17.9497453008
18.0941133447
18.1123765073
18.0264401036
17.7738641798
17.7066305265
17.9800629927
17.8398863946
17.4105628172
17.4164969264
18.0184722188
18.6529533634
18.9631286803
19.0256499655
18.9189717429
18.7161096513
18.4752467574
18.2069253693
17.9282244884
17.5103904157
16.6351333622
15.5800206641
14.3446672797
13.473375823
13.1348326459
12.3356627898
10.5763123253
8.63583713163
7.51282223462
6.22411522549
4.87665117612
3.45029071575
4.94618657371
9.0472474445
14.026790562
17.050494731
16.7888339746
14.8220243779
13.1974421621
12.3057060683
12.4562055555
12.9411045103
12.7892099932
14.7613374637
14.1804120921
16.0066269483
9.91176257356
12.8769862272
4.81669918431
3.10853396439
2.44027525103
3.00616245638
4.22211305312
3.98589520593
3.71197700747
3.80835887224
4.15110067358
4.66523856511
5.33522176988
6.17079108251
7.00336751142
7.7208363748
8.40536919984
9.09453009638
9.8954007368
10.7337649093
11.557176125
12.5678582026
12.645355679
12.4040037319
12.4048858717
12.6957741517
13.3582150937
14.3617391855
14.9565312561
15.4143974728
15.9261967367
16.4753488913
17.0437337803
17.6285565815
18.2010696767
18.3454532193
18.3711110138
18.3470874513
17.931247109
17.957824044
18.249320475
18.0051149068
17.3351363695
17.288872107
18.9824640428
20.18480522
20.3544081173
20.3236605624
20.0462300957
19.6161444026
19.2129454286
18.624421845
18.057266108
17.7718450307
17.8573910025
17.2123278617
14.569870348
13.9148166364
13.1484047501
11.287457684
9.6019502081
8.08803715754
6.61281515649
5.34032908836
5.29985815799
3.8100961921
5.24182799086
9.13338941094
15.0030798715
18.7699894612
17.5754486497
15.4372424047
13.5246962937
12.7934054713
13.1578047731
14.1897307797
13.5937808258
13.4082444839
12.8541242768
11.6276024881
9.76859394682
8.1968698472
4.28418731189
3.12186831699
2.68814263379
3.18622285437
3.35355787427
3.73172755636
4.08663959793
4.02940033924
4.07855533454
4.5823790077
5.31692273363
6.15095749944
7.00300510721
7.77211671133
8.46715005164
9.01391347515
9.73036720308
12.6280372147
14.6954741204
14.9801461114
14.1134912214
12.2292020159
11.9608167462
12.8648168005
13.5873214985
14.2208792184
14.9258092312
15.537796525
16.0537962223
16.5807994853
17.1597507733
17.6911643061
18.4025348908
18.5728129244
18.238691004
18.7636115219
18.3628105879
17.8236728079
18.4770367181
18.2325270894
17.5774090845
17.5327298381
18.1548518939
18.8045432867
19.1303680643
19.2172942642
19.1549660068
18.9817516289
18.7188788926
18.3682237915
17.955796768
17.4867405586
16.8562433149
15.9489209193
15.1261850487
14.4184073324
12.8881730253
11.2017304162
9.65372774784
8.2073574388
6.88496534109
5.82493060572
4.84176578084
4.2030202214
6.28669761498
11.3004982785
15.927058216
18.2162418401
18.3619433744
16.7936831302
15.1241913826
14.4130195896
14.2893331756
13.6170980031
13.0051918086
12.9393000424
12.5527349636
11.5345236409
9.89407749585
7.46252822524
7.62824854236
2.99891307142
5.38992811305
3.38301787202
3.41431032979
4.06254462421
11.7632468555
10.1027014171
4.77536252449
4.58132478921
5.3321653583
6.17594659646
7.04006840834
7.78526846433
8.53881399586
10.38101335
12.5963362851
14.242756235
14.4690048471
12.979265095
11.7058310784
11.8410951782
12.2275356691
12.7658857251
13.512412918
14.3149710608
15.0728094499
15.7267654344
16.2065690032
16.7821607135
17.2434146133
18.0102826981
18.3661229928
19.0118822849
18.7548693055
18.0811351527
18.5223897562
18.0941204819
17.6607769304
17.6748459598
17.7127851557
17.88206617
18.3270386375
18.8242199886
19.1444681742
19.2705775132
19.2443795098
19.0987874978
18.8558073623
18.5254744471
18.1182923074
17.6257642864
17.0038132919
16.22724389
15.3597667232
14.3109246483
12.9210586133
11.3472686882
9.83404520466
8.47365744195
7.318592264
6.42324799673
5.79297194047
5.748666906
7.22425951501
10.6180323265
16.2840215643
19.8540044715
20.0691065625
18.4244176233
16.0901423839
14.4870181588
13.683353853
13.8173781208
15.1517382426
15.0449164077
13.6890118875
13.5054124732
16.7474862382
13.171169475
11.2064860491
5.43170424914
7.40743356752
3.9754960937
4.29341570532
6.31948432759
11.646859848
7.8979936587
5.0656872893
5.08630369698
5.55657910392
6.32709566998
7.21352694769
8.6452166049
11.1307619536
12.1168094762
12.3641496599
12.1136447776
11.5349759048
11.3160498005
11.7652433404
11.9833284898
12.2353075611
12.8455882296
13.6213262605
14.4555326218
15.2624465249
15.8599385059
16.542833395
16.901490757
17.7039279887
18.0220988657
19.3166173237
18.8967435339
18.2127796816
18.3529470336
17.736922066
17.5931201658
17.6555307501
17.7832143771
17.9251538097
18.1390459929
18.4966021674
18.899130758
19.2008878489
19.3501930417
19.3538468048
19.2345841206
19.014294782
18.7069322825
18.3175099486
17.8350203127
17.2356613745
16.504183359
15.6265630202
14.5138655299
13.1179969337
11.601610275
10.1816668078
8.9765081632
8.04145818009
7.40839714288
7.13508671187
7.47177064912
8.18719960229
10.6768599457
15.768258336
19.9314900543
21.354133706
20.1958102275
17.4516233402
14.9956295495
14.6499932652
16.8208360821
17.6404841076
16.5656566079
15.6129702625
18.2069934743
21.1842517535
16.5318864943
15.6521787833
9.75664662433
8.88992742464
4.93693340896
5.62606753147
11.9141761743
11.349628392
5.97822353271
5.58290379185
5.66700378424
5.8953029256
6.61268672955
9.42272463538
12.8063663391
13.1519793481
12.6511016107
11.4140964357
10.6637814993
10.7255613323
11.6006174349
11.7623188857
11.8144513455
12.2906460717
12.9966826732
13.8271510297
14.5713260751
15.3982466874
16.3841866216
16.6300128673
17.6664049738
17.70455245
19.3525262806
18.9772696997
19.9053244188
18.6229979711
17.4945097547
17.3201932788
17.5105067499
17.7411645387
17.9464080601
18.1375283565
18.3723339019
18.6877035851
19.0314595641
19.3116231169
19.4707610158
19.4967565357
19.4015446837
19.2065228194
18.9285163124
18.5705181455
18.1200439171
17.5551502879
16.8478937636
15.9530387074
14.81197732
13.4522796705
12.0459164004
10.7806467454
9.75674114618
9.03162437768
8.62786098578
8.71030211759
9.65558782082
8.9462423314
12.2663662711
17.5470644658
21.1836428365
22.6004429287
21.6894546536
18.3613464954
16.2043426177
17.9390772146
20.0783058006
19.5191997975
18.4823930886
18.519993186
23.0037449882
24.5559461575
19.5913446595
19.3904758915
11.8387177671
8.57370625892
6.00739474815
5.65589930614
11.8048750028
7.95469735845
6.02284677607
6.11330460918
6.20011927131
6.87576489736
7.26157696677
12.6851242447
13.2428164621
13.1861808729
11.5619951867
10.1430865041
10.1376452313
11.4821617284
11.615725383
11.3917724531
11.8263697425
12.4062057987
13.1120374305
13.9399686079
14.9540006181
15.9565268946
16.3820945907
17.8080277287
17.6614921847
19.487900353
18.9281434119
20.0613342073
19.1140397161
18.3168383775
17.1871560445
17.1914392419
17.5502069828
17.8773174966
18.1238169574
18.3455355989
18.5983266029
18.8962688973
19.2068174822
19.4693520127
19.6323350869
19.6746526441
19.6026538428
19.4380579782
19.1988466581
18.8855569433
18.4812647174
17.9568649623
17.2713161687
16.3765595069
15.2537629208
13.9804762473
12.7265373473
11.6402319216
10.7769040979
10.1473090149
9.85847940466
9.99252746816
10.0741747347
10.3794650168
13.5670874693
20.0354013574
22.5347490913
22.9482257302
21.9132815524
19.6850444667
19.4381636677
21.9290538232
22.3261504366
21.4443460638
20.814398357
22.7114683871
25.3881654637
26.8046562162
22.2527900053
21.1196131633
11.4678032995
8.02529471089
7.08398459981
11.8635231366
11.8200239238
6.65736155892
6.60870394154
6.71433184525
6.85642879627
7.38590330803
12.4881318027
13.3787829285
13.3418939616
12.7122766299
10.1525440435
9.58548262342
11.221707905
11.6786991649
11.1542464447
11.2461207627
11.8781343805
12.6203669979
13.3391018578
14.2388085723
15.0383944868
16.4060578422
16.5043122218
17.7813404353
19.3546640312
19.5760805278
18.5029811081
19.3583088396
19.2958319126
17.4317106083
17.1158126898
17.313421227
17.6700804298
18.0222398954
18.3056612192
18.5566122678
18.8266916557
19.123398997
19.4184931687
19.6687818346
19.8327849556
19.8885327848
19.8414617536
19.7141612797
19.5240391944
19.2676697368
18.9216540424
18.4474202712
17.796539035
16.933474007
15.8793117715
14.7400203727
13.6578202197
12.7055367141
11.8650278441
11.1873370142
10.8987863224
11.0366261839
11.414038692
12.1204660552
12.7342448398
20.0712416939
24.244314598
24.3662187804
23.8240806075
22.9347309092
23.7830127236
25.1009999189
24.3780644361
23.6382859324
23.7813412901
26.0082945074
26.6165769819
27.1484407955
24.278664929
22.1519365687
10.6179607197
7.76302288556
7.72773917964
12.7907214269
10.58912822
7.0997514807
7.24087244435
7.46599278117
8.88617293502
7.40377385886
13.261730644
13.8423449541
13.3439874593
11.2706692219
9.59518368084
9.71645356467
11.3319638464
11.308640215
10.9983519977
11.275988255
11.874292448
12.7306720644
13.578123908
14.9708545765
16.1707440302
16.3050390369
18.4236189977
17.5413144503
19.6359957583
18.6536345085
20.1177923704
18.4120420465
17.6960713747
17.2808864219
17.2599226345
17.49100598
17.8219977179
18.1753917075
18.4917467855
18.7775054394
19.0676566515
19.3699168465
19.661264169
19.9059630692
20.0703605903
20.1391267885
20.1212847387
20.0393633602
19.908223188
19.7204044954
19.4457859525
19.0373060842
18.4454727882
17.6547280122
16.7186659636
15.7448469382
14.8076257144
13.8604045323
12.8382460353
12.0025177086
11.8461080306
12.431644517
13.2646859705
13.9604301511
14.3834121147
16.797885927
24.4016506711
26.1426487788
26.2544065765
26.9690261445
28.0443942009
27.6767177546
26.6103523146
26.319359893
27.188452889
28.2610916215
28.0288572597
27.367204161
26.3290910962
24.9530492322
9.90108946931
8.04671107746
8.89994301684
12.8073257146
8.26662465658
8.10496216228
7.87644655121
8.12632728533
11.5739227505
10.1651905354
14.0915532905
14.0640763396
13.351155316
10.3849564345
9.54490720149
11.2995072063
11.5899866837
11.0017335528
10.9530532296
11.4507267525
12.0054625068
12.8042724632
13.5066634195
15.1506697232
17.4229246152
16.1925743764
18.3466569349
19.509864554
19.8890045288
20.2854506676
18.9932831226
18.8466803406
17.2738116072
17.1480293867
17.4071885566
17.6835762868
17.9945461755
18.3389992733
18.6798375847
19.005266511
19.325008741
19.639886465
19.9334053472
20.177633814
20.3453591433
20.4283667901
20.4437076232
20.4155299196
20.3536929655
20.2458177986
20.0572623796
19.735652469
19.2355486134
18.5635231148
17.7915007387
16.9889936454
16.0923378097
14.8924600487
13.5039841264
12.7025108145
13.1200958897
14.3857711913
15.5608754274
16.3415566768
16.7340340847
16.2339743935
16.9363431164
27.9444853032
30.8193628433
31.9341846508
31.8363524139
30.4042355404
29.3995977243
29.5235235748
30.479385846
30.6517306744
30.2964381431
29.9371496041
30.2340245738
30.3955558195
9.67308844702
8.76313924868
12.4782412565
12.8296967942
8.14478093689
8.81295368787
8.49366624063
9.10405816354
10.8863225006
13.8212897491
14.8378980209
14.2551008698
13.4972327403
10.2301198265
9.65691402446
11.8664584908
11.6370501695
10.9292649495
10.9738116424
11.6000204384
12.4256466815
13.1563203978
13.701662052
14.7393071256
17.583788672
18.7217780586
17.7693082463
19.6642757986
18.3182416295
20.3272142471
20.421829401
18.7258855358
17.1833511227
17.2441377246
17.5874195301
17.8863210075
18.1890277928
18.5231605788
18.8733498703
19.2360463343
19.5968393901
19.9339736108
20.2351079478
20.4826743714
20.6569095437
20.7583106184
20.8119475111
20.8434425672
20.858589461
20.8412719492
20.7544203189
20.5447216678
20.1766815504
19.6772230246
19.1088700632
18.4243990522
17.2936595452
15.5316567982
14.0320103109
13.8104950247
15.2346641914
17.2251481541
18.6492838385
19.4480330596
19.576232674
18.8831709522
17.6791985794
19.1149818208
32.4739293296
37.7053824467
36.4620607798
34.0728402404
33.1133035634
33.3324538418
33.8104314098
33.8860245056
34.0375803903
34.4734801747
35.0265699413
35.667347399
9.8401709813
9.5421737145
14.0660823513
13.3766008734
11.2703579658
9.9726451942
9.31476879366
10.6008268138
10.1574102517
14.761038217
15.3950387436
14.5070220259
13.4440626367
10.7083437694
10.4199704779
12.3568612386
11.5942900213
10.968264594
11.0878109151
11.6441552225
12.6010637233
13.6112539783
15.4064153222
14.8889036616
17.0213108163
19.1153561238
17.5394319063
19.9684119224
20.5790720479
19.194617868
19.2089561628
17.6743748219
17.4920675971
17.5712312997
17.8218625014
18.1150572722
18.4144253287
18.7405447633
19.0813606498
19.4609509575
19.8723961216
20.2546139531
20.5704590338
20.8211345457
21.0052255596
21.1309418296
21.2280580685
21.3224638644
21.4178722775
21.497168084
21.5238736765
21.4533083814
21.2699234616
21.0045136629
20.6445165722
19.858304098
18.0729996327
15.9384900963
14.9205572617
15.7885168506
18.5310379613
21.1183887991
22.7174239796
23.6751889359
23.7256383009
22.7407283297
21.066772323
18.9963694311
28.5044524718
38.7920950253
41.6755374615
39.0057996215
38.0679893869
38.0978745956
38.220865705
38.1575435398
38.9050213685
39.6473817297
39.5634754431
39.7491491396
10.3165584775
10.1239843975
13.713618189
13.7465534754
13.7128600761
10.9790541948
10.2698615946
13.5980762828
10.3605205603
15.605398389
15.8162824777
14.7721917987
13.4038716303
11.2094086668
13.3562533878
13.4395158115
11.698389709
11.1435638752
11.3330347721
11.7973518197
12.5666122498
13.5765725833
16.8410219116
17.7931936717
16.3783306221
19.2085437046
20.021663199
19.4527676174
20.5502548299
20.6582426425
19.6660837902
17.6582362707
17.6841781334
17.8961876917
18.1083269164
18.3691669536
18.6480623924
18.9872106478
19.3449543013
19.7119426796
20.1411417184
20.5787607021
20.9363353565
21.1985440154
21.392953578
21.5478519387
21.6934557123
21.8507323872
22.0218007115
22.1923573071
22.3352340026
22.432629192
22.4972036876
22.5180398863
22.2734125632
20.9667539736
18.4239424008
16.6045805758
16.6989668294
19.2859675603
23.4849874288
26.6186853662
28.2017018923
29.3290930093
28.6877930437
26.8529181923
24.5102426601
21.4193436334
24.4197583226
35.8541172381
43.0801982414
44.5293818507
42.9418810158
43.0265496217
42.815235304
43.1197569045
44.2905458846
45.0074584953
44.9841701022
45.1525878867
10.8523291572
10.7382721347
10.4200368367
13.9987211825
14.1491782469
11.6097842963
11.1399876347
14.4861575322
10.8774326026
16.4563568311
16.1830572953
15.0478883504
13.4857476897
11.4345041917
14.5381937806
13.8776919377
12.0165861446
11.4824964119
11.6605283357
12.1227352045
12.6582498652
13.4828317539
17.4155255314
18.8370349028
16.680676803
19.2985520577
20.5578045536
18.6870609092
20.1732217387
20.0642646695
18.0868074164
18.0128487923
18.1273736307
18.2634086788
18.4201348227
18.6799921385
18.9438225261
19.2272236961
19.6078406497
20.0165836309
20.4477828335
20.9083712166
21.3126959132
21.6079422266
21.8239472238
22.013308879
22.2090464769
22.4209206636
22.6536015688
22.8970559852
23.1354277044
23.4248296484
23.8058746552
24.1449414437
23.7305273151
21.3532997949
19.0729081464
19.1698568126
21.0263278687
24.6652170263
27.5322432235
27.4322101874
24.1825954549
20.2454381803
15.6322069008
13.8611880128
15.3879315011
17.0163435453
17.0654698483
17.2946949618
42.4813452468
46.1585250022
46.1840021825
43.8397162907
43.7599782356
46.4895360191
49.2828754785
50.6762332034
51.6640454539
52.1675433408
11.56221631
11.6360807587
14.5970366451
14.5467278339
14.4863039659
12.1319472132
12.1171255085
15.2065293727
11.7938561516
17.1713218762
16.518530509
15.3365360278
13.6375020045
11.7570638126
14.7538950097
13.9283975012
12.3374066449
11.8688728252
12.0038546305
12.4110294591
12.9059766251
13.5452066358
16.681214458
19.6391438623
19.7269245636
18.5080720911
20.7637209778
21.407438152
18.5510594889
18.0089972413
17.9787945678
18.2194697274
18.4378598025
18.6081878806
18.7949155492
19.0022217835
19.2582873864
19.5557162083
19.8837878324
20.3185980505
20.794846625
21.2737255166
21.7040053797
22.0361605954
22.2942155449
22.5277078888
22.7716556471
23.037955817
23.3082638046
23.5585321141
23.8440785391
24.3301305276
25.0651963167
25.6281056263
24.3958777078
21.3693647754
19.4702518891
18.4250835432
16.5852691812
3.81151589239
0.0646078063542
0.000186926413774
5.31204064219e-07
9.19504180861e-12
7.19238898376e-12
1.74614665335e-11
1.1770409002e-10
5.5131938615e-10
2.03657656445e-09
1.29421258007e-08
1.01333955944e-08
8.79127162065e-07
0.000500370248309
0.0502978869654
3.81675996059
44.1218170674
50.8706801564
55.6320932415
59.569126914
59.4714201961
12.2128559887
12.3982165478
16.1568269075
15.0800091651
14.4101198214
12.6736691914
13.0804154437
15.7699502815
15.753395711
18.0377817442
16.8946478084
15.7022956487
13.8499171636
12.2289463668
14.9795093457
13.9301125312
12.6618139523
12.2665847051
12.3392632501
12.6734679537
13.1505860348
13.8232007797
16.0390594792
19.8896417699
21.1289148382
17.994963176
20.3112227874
21.3769627976
20.7902956206
18.5766927026
18.0952078635
18.4334580338
18.7757874026
19.0242745813
19.1271761512
19.3460150775
19.5779491136
19.8868450235
20.223472379
20.643927265
21.1572792722
21.6779781082
22.1195222627
22.4645482749
22.7771505038
23.1201646737
23.4598289351
23.7480481342
23.929084158
24.1082295836
24.4260015147
25.0075909719
26.0572767885
26.4621923919
23.1248226131
16.5828927354
0.102222226848
0.00041395068786
1.19707837971e-05
1.74272668676e-07
1.41592860568e-10
2.3626125692e-13
1.66541644284e-14
0
0
0
0
0
0
0
0
2.31631026003e-18
7.81243497579e-16
1.16857375142e-13
6.77969068036e-11
9.46956402991e-08
0.0051280109459
38.3071125243
51.6580142018
63.4299297411
12.7342958286
12.9432443328
18.3735716047
15.4589297862
14.0383552051
13.1595834778
13.7528975122
15.6571842838
17.3256206332
19.0410494324
17.4176692359
16.1890041189
14.2986385211
13.0118420059
15.4143293004
14.0954917013
13.0769414585
12.7211121563
12.7141893113
12.9701663296
13.3824074679
14.0122070865
15.7626762626
19.7515818959
22.1118010567
21.1718859475
19.6938268848
20.7094661222
20.3600124422
18.2805877823
18.5555837862
18.940251462
19.3464787627
19.4953258323
19.6100765355
19.7105246944
19.9633276396
20.2333121812
20.5890489491
21.014607209
21.5252937775
22.0888942459
22.6143496923
22.9785545356
23.3324409119
23.7869670646
24.2394334066
24.5180708199
24.5924131965
24.6896012772
24.9412988398
25.3531799057
25.8982065187
25.3098790913
14.0239339043
0.000147994351491
4.8535703491e-08
1.96258339458e-09
2.67592337824e-11
7.3381091419e-14
0
0
0
0
0
0
0
0
0
0
0
0
0
2.98456550548e-17
2.96581490254e-16
6.50170886602e-15
3.15258872331e-13
1.75070485833e-09
1.4572230113
2.80903256925e-05
13.133597064
13.3295304047
20.4872523236
15.7258944849
13.9689395693
13.6195566329
14.5410556403
14.7509862377
18.2738561883
19.7496035367
17.931206395
16.6921842602
14.9602707386
15.0218760622
16.0228173631
14.5110525095
13.6969718979
13.3863034223
13.1976242452
13.3557596493
13.6679783271
14.2277893947
15.700598769
19.6158009074
22.5064072713
22.8429901623
19.0711719519
19.2945176341
18.6224685271
18.3866296283
18.8138521113
19.4538236271
19.8390882677
19.9899581386
20.1070855093
20.3359410165
20.4006135343
20.6478138736
20.9811273361
21.3853097809
21.9690953715
22.5858861091
23.1347799468
23.445577682
23.8234209068
25.2422883101
27.265209244
27.8485062957
26.441489609
26.1712479459
26.2546090438
26.1984269721
25.6369788607
14.6637322731
0.00118032416554
5.29511978692e-15
5.35078414181e-12
8.73100513598e-14
0
0
0
0
0
0
0
0
0
0
0
0
0
0
0
0
0
0
4.61106013539e-16
3.12253376298e-15
5.75821114524e-13
90.8940897293
13.5006896145
13.6646626852
20.2302110179
14.9104632285
14.0344121581
14.0104934053
15.4392787567
14.5668242618
19.0597866846
20.4227269571
18.4314340192
17.1675856375
15.4572731862
17.3892451024
16.899900763
15.1351338548
14.4189832601
14.4752763667
13.9077124475
13.9132545033
14.055276365
14.4703172166
15.7909363872
19.4632563475
22.3589153268
23.9613941751
22.2500908217
20.962581637
19.9918825239
18.6893080613
19.1306042326
20.186542905
20.2132376306
20.4616971977
20.9668414511
20.8758004413
20.9416424552
21.1759366346
21.5078412296
21.8940631344
22.3649220985
23.0257231344
23.7369179724
24.6682065476
25.9707472667
27.9023099885
29.3767789
29.1886886585
29.1041855537
30.0022327879
31.2577865875
32.481007968
22.8999467476
0.0032509423592
4.27278659278e-07
5.80326316608e-09
0
0
0
0
0
0
0
0
0
0
0
0
0
0
0
0
0
0
0
0
0
0
1.41881577026e-15
0.000103269019735
13.9576570989
14.1042289455
19.7587902518
14.3771197335
14.2478627348
14.3196211069
16.1941310092
14.9280522229
19.7101927105
21.0824626045
18.9371831959
17.6609239132
15.8816517081
18.0564676192
17.7060004611
15.8354220698
15.1248440147
15.3187044594
14.7706480946
14.6988072445
14.6592447067
14.7374879863
16.0478253525
19.433587037
22.065465302
24.3086108925
23.4846812687
21.3148310895
18.9219539322
19.2231798066
19.726753795
20.7346231247
21.2564057776
21.5944123333
21.7901629965
21.5017126788
21.5520804478
21.804955197
22.1308316985
22.5331140715
22.9850454418
23.7162434715
24.8652201213
26.7027250706
27.9017181673
28.0970744489
28.7932641606
29.3887405861
32.1130583236
35.6545125895
40.7549224615
35.7413308146
0.00430903680202
7.4307130416e-07
1.52407751107e-09
3.69008482687e-11
1.23863622046e-13
0
0
0
0
0
0
0
0
0
0
0
0
0
0
0
0
0
0
0
0
0
2.38436762078e-16
3.15473614548e-16
14.6727450144
14.8220151324
19.2681434421
14.5345240234
14.7641867069
14.7372375938
16.0268910232
15.6224129959
20.134906745
21.7022615327
19.4833773772
18.2130430839
16.4461289007
18.6772481492
18.4460316019
16.655235934
15.9091609256
16.149549058
15.6024336113
15.635630049
15.5698945884
15.1765971469
16.509408393
19.5781578326
21.9245291854
24.4068351885
23.9817409359
21.8387621862
19.2771971527
19.4038347008
20.4540269355
20.703330148
21.040935032
21.6526660601
22.7388246706
22.5155986494
22.4689179634
22.514920666
22.785071936
23.2748948008
23.8444087713
24.6856161541
26.9127600842
29.0064856268
29.0038377454
29.0042781765
30.2159170819
34.2235822741
39.4807080631
44.9624383519
37.4491695497
0.000154019275885
6.37367780462e-09
2.08971977609e-12
1.31118709078e-14
2.65766997406e-14
4.08118936578e-15
0
0
0
0
0
0
0
0
0
0
0
0
0
0
0
0
0
0
0
0
0
1.76235608533e-17
8.00234113536e-17
15.7805290176
15.8763910094
19.3907246404
15.412893907
15.9290538771
15.5387606025
16.1685399755
17.0045062737
20.0153948788
22.1279910399
20.1019049602
18.8466257247
17.1305394122
19.3862714213
19.2179488267
17.6572076635
16.904818165
17.1511794623
16.4382682626
16.6808503654
16.8331419788
15.8784192487
17.0138368654
19.8917097655
21.9648934688
24.2224757677
24.1907590914
22.337545245
21.6102490833
20.297824789
20.9022831477
21.7509755078
22.8209771473
22.1835290466
22.7382320415
23.5909417941
23.451426093
23.6338726236
23.7463690117
24.0819935261
24.7882884621
26.8777760548
30.1237033819
30.9441443588
30.4115988912
31.6358307156
36.923389885
44.1980482998
49.8857385962
23.7490999542
2.33347516904e-06
2.17861724539e-11
1.49068173781e-13
0
0
0
0
0
0
0
0
0
0
0
0
0
0
0
0
0
0
0
0
0
0
0
0
0
0
0
17.3644276149
17.1797467733
20.0436205694
17.3546331125
17.958875611
16.7653406372
17.0205862539
19.0490924049
20.0859877738
22.6691792499
20.8535222674
19.5746157569
17.91399185
20.1317032346
19.9843922844
18.7741200825
18.4435317505
18.4919936946
17.3627753604
17.8423061128
18.4315528359
16.9443061756
17.3641174262
20.2765942033
22.1889946332
24.0296572369
24.3587855733
22.3792148883
22.7993249947
21.9571243311
22.0645332819
21.1891832222
22.1714850472
23.6021249903
23.6721701568
24.151839659
24.4398386172
24.607151051
24.9389158518
25.2691808109
26.7204624934
30.6020455861
33.1059388139
33.2036629841
33.8150647957
38.2297672025
46.5802410904
51.3465226043
0.4730692679
2.08243366746e-08
3.64053358245e-11
1.66695390941e-13
0
0
0
0
0
0
0
0
0
0
0
0
0
0
0
0
0
0
0
0
0
0
0
0
0
0
0
0
19.0642679559
18.4003576722
20.7854749121
20.0059778912
19.6740435189
18.2226791223
17.9782246474
20.164492264
19.0019941005
23.0658162299
21.7224428953
20.389824855
18.788982134
20.8939893909
20.6953448186
19.6955407778
20.6928865679
20.1279933073
18.4203612965
19.1648095057
19.8032147046
18.3494560365
17.3693985232
20.2136772004
22.3351696578
23.8698868361
24.3965075893
22.4139547192
23.1083813713
23.2621388017
23.3442332072
21.9184266666
22.4997020398
23.2952663812
24.6055687077
25.3774404383
25.6817066338
25.7770783323
26.0412588967
27.0362930852
30.6180996569
34.6289422785
36.2979854575
37.0087976535
39.7652002112
46.1026197721
47.0191967392
0.0219328963882
5.607133039e-08
8.11750807207e-11
2.84290792722e-13
0
0
0
0
0
0
0
0
0
0
0
0
0
0
0
0
0
0
0
0
0
0
0
0
0
0
0
0
0
19.8640447071
19.2623226717
21.2445557596
21.0176138596
20.7057168245
19.626098435
19.1474090022
21.5460899142
19.9997937714
23.597249558
22.5998511287
21.2562566755
19.7494413522
21.6930251945
21.4301991831
20.4727224698
21.629748066
21.1938806057
19.469321892
20.4976172973
20.4898081623
19.0831289023
18.4657930972
18.6480944548
21.820959897
23.3501959615
24.1630938234
22.3724719084
23.1397839093
23.755431562
24.3576323802
23.9170051146
22.5881265959
23.252896471
24.7810788869
26.2228414737
27.0407984921
27.4383704496
27.7085286611
30.6170631612
35.2904678964
38.5456731946
39.8164110404
41.3021854339
45.1072217927
42.317507382
0.0778549117187
2.96216684191e-07
2.6683207592e-10
7.59951566372e-13
0
0
0
0
0
0
0
0
0
0
0
0
0
0
0
0
0
0
0
0
0
0
0
0
0
0
0
0
0
0
19.9029011823
19.8323808584
21.5430587162
21.1976841023
21.3780909754
20.7321651228
20.1809691684
22.9036527297
21.7243272282
24.3029409657
23.5384506627
22.1594985121
20.789047541
22.5433848372
22.2428198803
21.4005747194
22.399130408
22.1295159612
20.5983410669
21.5016783051
19.9946763302
19.7915260451
19.4947450858
19.8004920601
20.6784668907
21.5756162275
23.3036014813
22.2212526101
22.583338361
23.7472289369
24.7802110552
25.2837056781
24.1828925304
24.0043935148
24.821600198
26.2024532416
27.8226404774
29.1684629942
30.6060492114
35.1339816828
39.5729864285
42.0110911688
42.6270053429
43.2023460522
39.0664247784
19.1895851649
2.00907242906e-06
9.26856081732e-10
2.07624432653e-12
0
0
0
0
0
0
0
0
0
0
0
0
0
0
0
0
0
0
0
0
0
0
0
0
0
0
0
0
0
0
0
20.1507928681
20.2547958931
21.8322206271
20.1416082692
21.6639517938
21.3439025417
20.8885334197
23.4858338253
22.5545174857
25.0516921211
24.5329092272
23.0756678731
21.9185305115
23.4328216275
23.1051409176
22.4703533217
23.2381006141
23.1773016651
21.8481993227
22.8912332758
21.3381981805
21.5098161532
20.7414888495
21.0659179945
22.6127525332
23.2061148417
22.9357344574
22.0145231718
22.0314400516
23.6966927636
24.7870488689
25.5033878392
25.6943387914
25.0907676844
26.3733440936
26.9438524697
28.4747673721
30.8310988314
34.3138201707
39.5584955443
43.2871490788
44.5989073903
42.9118087101
37.7773466337
29.8745453515
7.60274809485e-05
7.77749233356e-09
1.77058418717e-11
0
0
0
0
0
0
0
0
0
0
0
0
0
0
0
0
0
0
0
0
0
0
0
0
0
0
0
0
0
0
0
0
20.8846341272
20.9582470527
22.1277053627
20.5680330082
21.9128882624
21.6792580782
21.4018844816
23.6589801473
23.1561342769
25.6101774847
25.5279013182
23.950676109
23.130135875
24.3204625331
23.9420794767
23.515540053
24.0427653029
24.3179322336
23.1470609274
24.2760447936
23.1276585156
23.6590018311
23.3336431157
21.9361881905
23.2417237426
24.2714286463
24.3344412488
21.8939272554
21.3947198739
23.6112817715
24.9460583081
25.0111996099
25.3395214402
25.4033386698
26.5685471001
27.4874686051
29.2778215268
32.5856713873
38.1491049983
43.8451710979
46.5490212606
45.5983860418
38.7235162495
34.1416785437
0.182752867076
8.84306519777e-08
1.23381266821e-10
5.00313780058e-13
0
0
0
0
0
0
0
0
0
0
0
0
0
0
0
0
0
0
0
0
0
0
0
0
0
0
0
0
0
0
0
0
21.812521328
22.9691576898
22.5701872224
21.5930821594
22.462032896
22.0781404954
21.9032570884
23.8128444496
23.7183554164
25.812637482
26.5120004058
24.7507796436
24.2130504166
25.039469084
24.7515286617
24.3009540958
24.2473822463
25.3670263178
24.5370693063
25.4825913737
25.1565521263
24.952696053
24.7173418843
24.2658139096
23.4068219143
24.236500182
25.3113522266
21.2612572806
20.9135312055
22.8607619438
24.9937579908
25.6758924679
26.2835034972
25.4405162063
26.3983996214
27.743000605
29.7320589033
34.2201640139
41.8590098914
47.8280712641
49.1942766797
42.8062858978
38.5061709429
32.0730503741
6.67018417522e-06
8.3628941865e-10
2.13441174623e-12
0
0
0
0
0
0
0
0
0
0
0
0
0
0
0
0
0
0
0
0
0
0
0
0
0
0
0
0
0
0
0
0
0
22.5219235657
23.7108263067
23.29636789
22.5228736256
23.1898928674
22.6736343737
22.4798317648
24.0593884765
24.2754962477
25.7462297557
27.4022358322
25.5450914713
24.8653436178
25.6417497179
25.6588549241
25.0238884278
24.4199484277
26.1132681509
26.0003235085
26.5355876204
26.4871800983
26.5668491771
25.1050113604
25.0563580732
24.5293706762
25.9520033885
26.6840797797
23.4565256521
20.5338376442
21.836212447
24.3602261353
25.9542750399
26.4575008015
26.0863475442
26.0564850011
27.6842048257
29.7054539051
35.5021080512
45.3059104358
51.7726657756
49.2397353371
39.5205960083
36.1387877868
0.209325548989
2.86729621939e-08
2.46583378566e-11
8.28660188852e-14
0
0