/*--------------------------------*- C++ -*----------------------------------*\
| =========                 |                                                 |
| \\      /  F ield         | OpenFOAM: The Open Source CFD Toolbox           |
|  \\    /   O peration     | Version:  v1806                                 |
|   \\  /    A nd           | Web:      www.OpenFOAM.com                      |
|    \\/     M anipulation  |                                                 |
\*---------------------------------------------------------------------------*/
FoamFile
{
    version     2.0;
    format      ascii;
    class       volScalarField;
    location    "38";
    object      alpha;
}
// * * * * * * * * * * * * * * * * * * * * * * * * * * * * * * * * * * * * * //

dimensions      [0 0 -1 0 0 0 0];


internalField   nonuniform List<scalar> 
6400
(
0.780841334233
1.08403063788
1.58351673817
1.54648345423
1.5519805226
1.66289019353
2.23096921047
2.94075876381
2.69904055766
2.45916618069
3.63430146506
3.50403904293
3.2965743389
3.27740359348
3.83424135507
4.34470606625
4.32004570823
4.41956871994
4.77505445928
5.03495028243
4.9436044033
4.66342971672
4.43544639232
4.53425129767
4.59988832287
4.63982373697
4.38327730182
4.00361935009
3.89746126297
4.03984102645
4.506060316
4.45086727927
4.1939698724
4.17207183507
4.29564484854
4.0541711061
3.78875036273
5.16552128145
5.01589688894
4.43438184962
3.84330851426
3.44452439268
3.22708863171
3.16946742637
3.26183301495
3.29785489502
3.5066549226
3.95155009926
4.51981034349
4.87491815615
5.18326619101
2.84629478142
2.66143872209
2.28628245086
3.22937503266
5.83488221083
7.09279904938
6.47786686705
5.17331747167
5.20343472511
4.59892518789
3.83278658586
2.91822856213
5.05402916428
9.27810079451
14.2958625402
17.3305866625
17.0644129606
15.0700411523
13.3832405081
12.4101118855
12.4748828179
12.8958510443
12.6969882739
14.6719998768
14.082804332
15.9514000983
9.84063683773
12.8617199471
4.80572934781
3.01835257347
2.26385258661
2.71385202078
3.85983833149
3.24426758955
2.38951489443
1.99983178051
1.99207580591
2.11274302715
2.31605374014
2.66035956145
3.0064855362
3.29259188135
3.56930378878
3.74549582215
3.99831725505
4.31709370184
4.9004904085
6.79804107044
6.65624974383
6.0893773134
5.45302140136
4.5629460713
4.10059007647
5.28012857635
4.62780817786
4.01611488064
3.9636195451
4.06807626418
4.33096306115
4.49972211208
5.61196234107
5.47106286127
5.7172282805
6.29860509718
4.7808751126
5.49998892059
6.33273100538
5.66937485714
4.0314770082
3.18738511067
9.34719047164
11.1421472634
11.1369332296
10.9997315758
10.3728948055
9.43537166373
8.7639464078
7.65955947481
6.8739084666
7.39616082172
9.12252158097
9.86597859476
2.92974994629
4.01296509999
4.56262745
0.603584882824
0.150563012648
0
0
0.326863382439
3.94791278795
2.69220120261
5.09862685511
9.25174735256
15.1992442056
18.9831522758
17.8069112914
15.644153401
13.6796384845
12.8707379912
13.1584269062
14.1342014149
13.4910384888
13.2834975655
12.7256017396
11.5150529234
9.67869950973
8.14816005033
4.23136275644
2.85619905975
2.3021593039
2.7389012302
2.51404578513
2.27867355162
2.42613096751
2.35072421416
2.04597567419
2.10465476066
2.31833594484
2.60242696209
2.98066539002
3.32695321686
3.63799343851
3.83086256452
4.19781465219
9.2221280758
11.6570291899
11.7994936184
10.4225375838
6.46968973115
4.2196234908
5.27435550622
4.9550386469
4.21426510266
4.12677027354
4.27975132429
4.31611189003
4.45067706768
5.07253281456
4.94438349502
6.51719923049
6.90092862109
5.20191293859
8.46610041511
7.55007959795
5.09445766911
8.09619871045
6.96003372223
4.29856259334
1.23511216185
0.572621997817
0.242234415368
0
0
0
0
0
0
0
0
0.47621542026
1.62139965382
3.46905068416
4.85272991788
2.44005676515
0.49418320014
0.218218559986
0.167485295786
0.39960437858
0.660389864952
0.853883667171
1.41817135416
5.56919318023
11.1795285057
16.0013017724
18.3638866924
18.5165868181
16.9228806
15.2058793521
14.4337965708
14.2475183323
13.5104390637
12.8505469075
12.7725450863
12.3930049376
11.3955844643
9.77270730666
7.33164780451
7.52618161902
2.37560474216
5.13512552164
2.52003800426
2.10823515404
2.74833326915
11.5354488632
9.79494161011
3.47555855323
2.19827995624
2.42161796207
2.61160746902
2.96428629613
3.35806176567
4.09602019793
7.21653809096
10.0024924718
11.7048403673
11.5528383038
8.83469325925
5.17101936213
4.69478576896
4.56425124533
4.09231202502
3.9426744155
4.16241476633
4.46504782667
4.90386042714
4.58924889638
5.42005622057
4.87019359276
6.72292909578
5.78141769275
8.28282289697
8.14462169576
5.50091830622
8.21824950441
6.48221448604
3.00293021049
1.16455150131
0.975012569692
0
0
0
0
0
0
0
0
0
0
0
0
0
0
0
0
0.209767707612
0.622795495145
1.06461919943
1.28451231493
1.38934256601
1.51755447006
2.0562275325
5.47093398503
10.0850053636
16.1930559348
19.8775013947
20.1137450753
18.4507436569
16.0774282108
14.4158768135
13.5434191538
13.6360258345
14.9810923666
14.875238621
13.5180829318
13.3546516348
16.6489439114
13.020006305
11.0107789808
4.8665504418
7.03811984032
2.3935882928
2.77869231815
5.68752029052
11.4070199894
7.15581109708
2.75537282033
2.46045765165
2.55120945424
2.78957327894
3.37219162976
5.49353766275
8.89934965814
9.79244894913
9.70091969353
8.69826475112
6.655792551
4.62621063817
5.27950938479
4.93661272865
3.99853157721
3.87350690487
4.07141927131
4.47313628573
5.05171596823
4.82978077187
6.07550078521
5.04040049532
7.24566334691
5.5656357497
9.41979798966
7.38486893312
5.16662903892
7.67798029195
4.38305292831
3.08448179367
1.58968838005
0
0
0
0
0
0
0
0
0
0
0
0
0
0
0
0
0
0
0.450080522964
0.908985071734
1.20860797994
1.55642179335
1.76872384458
1.96916840652
2.64106305778
5.06077580848
9.51161320602
15.3839386552
19.7769949525
21.2532188366
20.0827593591
17.291010793
14.7644595201
14.3956206043
16.6180388241
17.4484841974
16.3643450473
15.4052443184
18.0274427834
21.0260981375
16.2757654762
15.3628465374
9.27880375829
8.32864010496
2.91293558112
4.37525138725
11.6260777431
10.9910067704
4.07111090346
2.74028202127
2.82020165639
2.85316199063
3.48580181982
7.52168475707
11.4243884686
11.524433554
10.6591728952
8.49652890047
6.14859003911
4.51679553743
6.12416101361
5.5285932717
4.05539041802
3.82537170717
4.02221682884
4.55713646806
4.51833130681
5.09316548186
7.0976712191
5.35203369635
8.43744096766
5.91199217254
10.8314923261
7.70599495127
11.0386801333
7.94658973171
4.39847682101
2.27806037501
1.64104608833
0
0
0
0
0
0
0
0
0
0
0
0
0
0
0
0
0
0
0.0964020667341
0.484265491824
0.724908874644
0.770231545976
1.26282500808
1.83417368887
2.55690139371
5.54503087248
3.65233514489
10.4076525549
16.7933969454
20.7688224063
22.2937653797
21.3800043278
17.9658312254
15.7651435125
17.6275878281
19.8397118
19.2693854768
18.2228000844
18.2352301417
22.7553088386
24.3081048877
19.1998184211
18.9700922021
11.2749442235
7.52177704014
3.51804780431
3.70886228628
11.4220251105
6.83955241558
3.02823076661
3.02960134403
3.21080140409
4.28800266312
4.50924924244
11.6070784139
11.7925243249
11.5618540828
9.23540228659
6.19332715856
4.47354971394
6.99212471994
6.43721671891
4.32636571056
3.8958365606
3.84736034296
4.12612365527
4.62588208941
5.75711949354
7.41782260249
6.44566488528
9.79184069355
6.98344936074
11.8133056433
8.85053834659
11.6753037299
8.57613256953
7.99526228778
2.34843601109
1.46795951057
0
0
0
0
0
0
0
0
0
0
0
0
0
0
0
0
0
0
0
0
0
0
0
0
0.482897212348
1.95053597422
2.23805762554
3.04547119841
10.6611404425
18.8779567394
21.7306300513
22.2845263097
21.2564305048
18.9781736138
18.860776301
21.5578646931
21.9913693602
21.0993478183
20.445765518
22.3227942431
24.9859482903
26.4199818901
21.6864151069
20.475599791
10.692421757
6.25092608958
4.44395355102
11.2133672863
11.2476288945
4.21897779002
3.38173392558
3.34708809951
4.19480708854
4.82716794177
11.4607072543
12.2339764658
11.8942674288
10.9893511261
6.97893188605
4.49214823721
7.28350081075
7.4289275069
5.19362602139
3.75796612378
3.92479949301
4.37627476532
4.33292599057
5.15937141127
5.3820863
8.3047565659
6.59562990723
9.10125528709
11.3767400297
11.3061728675
7.25286531269
9.67630413071
10.1503699637
3.05716051863
1.94341957826
0
0
0
0
0
0
0
0
0
0
0
0
0
0
0
0
0
0
0
0
0
0
0
0
0
0
0
0.91245460864
2.18975588982
5.29935823408
18.0470156836
22.8562785012
23.2007347664
22.7553116396
21.9661469205
23.0846676423
24.58877559
23.8820089684
23.1404851755
23.2451003861
25.4405903344
25.9723396955
26.5114440183
23.4618560421
21.1578937876
9.50695002701
5.14975140272
5.19227166848
12.0284670702
9.4475060074
3.68270565394
3.81205620484
3.85336426931
6.85468059059
4.44342374776
12.227932169
12.4919410194
11.794095973
8.94723443689
5.26652744821
4.47848444746
7.53099101443
6.48217946677
4.43377732513
3.7547947604
3.82671866916
4.84989297607
5.26212148789
7.00396608953
8.99023128477
7.25470292277
11.7215355889
6.76808255382
12.0758441148
6.81082363511
11.9154729186
5.96932899875
4.88156565596
1.82556619762
0
0
0
0
0
0
0
0
0
0
0
0
0
0
0
0
0
0
0
0
0
0
0
0
0
0
0
0
0
0
0.574023175675
11.5402384317
22.3572768457
24.2239716355
24.6349708534
25.7187808582
27.1393687858
26.9095343176
25.8725867118
25.595070048
26.4262274711
27.4113751604
27.0576571025
26.3003378583
25.0906881674
23.5030613445
8.23353972302
4.62378409585
6.65751766082
11.9634215811
5.80988081608
4.94304543065
4.18749164406
4.63409421829
9.90743643468
8.08502771034
13.0414738435
12.589165326
11.6610095344
7.34836170464
4.47864520312
7.80772205898
7.86873940924
5.79069136484
4.10331283798
3.99138247469
3.86721076303
4.88209354044
4.98831601661
7.08964669898
11.0433627298
6.29346257411
11.3030729088
12.299346371
12.109260573
12.2996027965
7.94755329762
9.32765755381
3.27656058907
0
0
0
0
0
0
0
0
0
0
0
0
0
0
0
0
0
0
0
0
0
0
0
0
0
0
0
0
0
0
0
0
0.256834353327
9.87032297105
25.6199498931
28.7693236219
30.3381265144
30.5749330951
29.2602732779
28.3245000923
28.4848477954
29.3998306945
29.4216182214
28.8716965573
28.2961611996
28.4007425076
28.4250282044
7.26360044326
4.78800297416
10.9632775796
11.5799320381
4.53582592196
5.62350562307
4.39899019403
6.21885253852
8.59989749784
12.2563169979
13.53586518
12.5651409512
11.565810989
6.36576101253
4.3041386071
8.60233398961
7.57288190971
5.28380079553
3.93157064146
4.04921310548
4.91005235523
4.77674789982
5.0668559875
6.37158128692
10.8395330211
12.3428243689
9.01251446338
12.5545552437
7.02489937382
12.3213487108
12.0728719398
9.35922937624
0.399997076815
0
0
0
0
0
0
0
0
0
0
0
0
0
0
0
0
0
0
0
0
0
0
0
0
0
0
0
0
0
0
0
0
0
0.932157509094
12.0370728986
30.0273765696
35.7720086603
34.704319677
32.430946399
31.5946757674
31.8782186644
32.2909780877
32.1564410392
31.9920450852
32.0746307889
32.335162748
32.8646367396
6.65303355186
5.30387576206
12.405656642
11.5836519044
8.80264512754
6.67178911256
4.73423833571
8.06885358571
7.08395376081
13.1444459993
13.8120717813
12.5618215277
11.1011165512
5.9440984126
5.26556587503
9.26646773185
7.23102248034
4.91492365349
3.93185934464
3.99066108233
5.3397089396
4.80392452612
8.74738213351
6.20665827599
9.82552921152
12.5549201697
7.48610002037
12.7653200446
12.9834074118
8.73029221685
9.8474530731
3.69827034256
0
0
0
0
0
0
0
0
0
0
0
0
0
0
0
0
0
0
0
0
0
0
0
0
0
0
0
0
0
0
0
0
0
0
0
2.71561416187
24.658984752
36.2257612319
39.3804682185
36.7025744083
35.9634733064
36.1087268464
36.1930693392
35.8032893213
36.0182365655
36.2039290811
35.5951609757
35.5617632409
6.62003917554
5.80402530499
11.8640720429
11.6078373953
11.4394884739
7.05546976025
5.23402370478
11.6594601627
6.53890452997
13.9872889956
14.0266208095
12.5959133845
10.6858836257
5.79306174915
10.1585015953
10.4415033869
6.96813818643
4.69748123034
4.09112976692
4.24379020558
5.29712133081
4.67891441808
10.7627449342
12.2145258235
8.26606506336
12.6344357971
13.4065993005
11.766306115
13.0151127785
12.7651350763
11.5292977712
0
0
0
0
0
0
0
0
0
0
0
0
0
0
0
0
0
0
0
0
0
0
0
0
0
0
0
0
0
0
0
0
0
0
0
0
0.136608951277
20.3454695621
33.1506319342
39.947819496
41.6126585132
39.950421513
40.215250987
40.1082914306
39.9983281529
40.2383670494
40.0965287318
39.3660767206
39.1900557183
6.59572150336
6.11472037608
6.3460010082
11.749819762
11.6173465976
6.98884866013
5.83360171986
12.2646399126
6.43326348965
14.7904607597
14.1857983649
12.6327038008
10.4057102999
5.64472874226
11.4664614408
10.3233806507
6.64103878634
4.62709583018
4.29792072101
4.77699875458
5.29808925071
4.72541730454
11.5964770496
12.7551448633
7.73697393714
12.7346813181
13.7071291768
8.94578043827
12.4505970307
11.9344745718
4.76068326402
0
0
0
0
0
0
0
0
0
0
0
0
0
0
0
0
0
0
0
0
0
0
0
0
0
0
0
0
0
0
0
0
0
0
0
0
0
2.91988375365
15.8199885385
40.490608306
42.7947590978
44.9847622084
43.6077897496
42.7070386685
44.0131308594
43.9939857934
43.6153169114
43.9635881841
44.1652100102
6.68514757885
6.52383635237
12.3000516183
12.06234699
11.6050469292
6.74515517115
6.70905883218
12.5089117907
6.90929595443
15.4259241354
14.2925488457
12.6439262896
10.0995782688
5.64289127224
11.5197305618
9.7874333107
6.32571324259
4.63684069706
4.49286301987
4.89867817795
5.39202781804
5.20920842156
10.1914433208
13.2432723858
13.689209343
10.9285918266
13.5327933803
14.2807698594
7.03284862314
5.81182460596
0
0
0
0
0
0
0
0
0
0
0
0
0
0
0
0
0
0
0
0
0
0
0
0
0
0
0
0
0
0
0
0
0
0
0
0
0
0
0
0
9.24181000343
35.9721868634
47.92764145
48.0752047487
45.8667061129
47.3254792081
47.8799620521
48.6234573296
49.9318945826
50.0926970178
6.65442595675
6.72889509823
13.6845381975
12.1457376116
10.8025682063
6.5854916451
7.76169894592
12.4627068439
12.5610192193
16.0439873386
14.3697378734
12.6597044366
9.66291815938
5.80709339687
11.5310390463
9.20113947437
6.08324582747
4.7231456054
4.577557399
4.92389192836
5.39861376662
5.83916024248
8.63783997918
13.295310139
14.903022411
8.2813677805
13.2419514751
13.6428482804
13.0465772922
8.56416072327
0
0
0
0
0
0
0
0
0
0
0
0
0
0
0.197267134955
1.79347777937
1.65602005128
2.40906599955
1.78516152671
0.674395434346
0.371058462282
0
0
0
0
0
0
0
0
0
0
0
0
0
0
0
0
0
0
0
0
0.0296096591617
9.98672504488
40.1497089927
51.4688521255
52.0672601488
51.7135095603
55.3210148264
56.7632432034
56.7645655692
6.60191047188
6.75569434745
16.2107815786
12.0696502472
9.35986711883
6.56164280916
8.47855781228
11.7593753335
14.0377875332
16.6934973718
14.4970352779
12.7026513528
9.21560752777
6.42452563419
11.7675708591
8.78648981014
5.96691937673
4.94273266334
4.7097646922
4.97836798547
5.39479937897
5.80780512316
7.76606352003
13.1493750386
15.5652412507
14.6178029556
12.0069858188
12.8192231831
12.1557917526
4.06601783194
0
0
0
0
0
0
0
0
0
0
0
0
1.81151171427
2.41103503296
2.40464181716
1.90166631216
2.26887993529
2.66417211276
2.49347172318
2.40694646333
1.05927947548
1.13532982209
0
0.435873309247
1.29236449301
0
0
0
0
0
0
0
0
0
0
0
0
0
0
0
0
0
0
0.381520424477
3.79123513443
32.1704001213
55.8024844121
57.073081627
60.2252440955
59.7230112201
6.50219064874
6.66139940638
18.5346723026
11.8771806242
8.27016613028
6.66823886755
9.50545141586
9.63056527053
15.0654972307
17.1431811273
14.6363584103
12.7553164636
8.97289776099
9.55665300552
12.0003700277
8.64921309489
6.09201635389
5.50420577913
4.94955793648
5.14001313758
5.47993734394
5.77618538308
7.29114760794
12.9617251939
15.581115499
16.0833834389
7.70616007945
8.88854978322
6.2762689386
0
0
0
0
0
0
0
0
0
0
0
0
2.8283572072
3.73040982787
3.13981667104
3.90092356489
9.80981050605
14.4379875969
15.3193185957
10.5808257078
8.67346038566
7.21390157136
6.07821352076
4.93719513075
4.20136608555
4.79173852452
0.887151065918
0
0
0
0
0
0
0
0
0
0
0
0
0
0
0
0
0
0
0
0
5.89437094584
29.962639653
59.854072116
54.0540711843
6.52414870861
6.68739016604
18.073750662
9.92128115576
7.50179943075
6.74278218656
10.5060082754
8.45339431658
15.8869656873
17.625617423
14.8078067157
12.8326243418
8.77418951374
12.7427113267
12.323350819
8.70001564088
6.36086913688
7.13503005006
5.38006488377
5.49032061261
5.7418557221
5.67418143715
7.14380519167
12.8129046067
15.3913421025
17.1342462363
14.6556674994
13.1106941214
11.5439443928
0
0
0
0
0
0
0
0
0
0
1.59460298682
3.08008671347
3.8429417462
4.97353649313
8.26942486972
11.3322446933
14.9964862825
17.1254659181
15.842746727
14.6505769265
15.497478673
16.5294936894
19.8700668127
20.0721815907
18.4761680862
17.8261463984
15.5077366484
0
0
0
0
0
0
0
0
0
0
0
0
0
0
0
0
0
0
0
0
0
0
18.1368843784
68.403715099
6.70781361493
6.89483743747
17.3107262599
8.13108116222
7.30566442327
6.7790386213
11.2088630177
8.23291858848
16.4572200304
18.0968255415
14.9890324102
12.9382946742
8.64955640789
13.0739144011
12.5547002791
8.75405107623
6.65505821868
7.77527188862
5.94347053711
6.07283137799
6.3665225679
5.32650099497
7.32481929417
12.7451651625
14.9514290314
17.4668336717
15.8519033727
12.8759814187
7.73739062221
0
0
0
0
0
0
0
0
0
2.2283418787
4.1583808495
4.15008981749
5.02094571195
7.20547442618
11.5042723154
12.9552598491
11.970664405
13.2409370497
12.6592028328
17.1259058073
21.3961150735
28.3125717666
30.9977499983
29.3012688587
27.5215822021
30.0194186229
26.9384013525
0
0
0
0
0
0
0
0
0
0
0
0
0
0
0
0
0
0
0
0
0
0
3.04796441935
4.03273532153
7.21238355089
7.39020959966
16.273441176
7.25509972998
7.7098596277
6.93287472337
10.0629826416
8.86920840807
16.6619510344
18.493474813
15.1922633801
13.0834387077
8.69569180312
13.4363353824
12.8333051574
9.04123681915
7.14195924455
8.53738184148
6.45064042297
6.85186467076
7.4899107621
5.33804391811
7.91573299353
12.7674609141
14.6505521179
17.3758168054
15.7122278175
12.2419781545
1.10153731847
0
0
0
0
0
0
0
0
0.728406110113
3.92404239587
4.69558627017
4.94563021148
4.68549925404
10.7778580547
14.0509699289
12.5752457009
11.7321515962
12.7219584975
18.9738631815
25.7572210465
32.084935202
35.7958585537
34.0517170219
28.0306980146
27.3951169308
16.8734395485
0
0
0
0
0
0
0
0
0
0
0
0
0
0
0
0
0
0
0
0
0
0
0
0.225283995449
1.02294842622
8.14486137109
8.08846816507
15.6673218642
7.49071417848
9.01805033439
7.41447564375
8.96771518635
10.8219925166
15.9011496974
18.5889966696
15.4581425731
13.3023118156
8.9127837274
13.8352848072
13.1509592714
9.56819985299
8.02359031706
9.60392821124
6.92669627595
7.86399932058
9.10731781487
6.06113719691
8.29865465422
12.8734159701
14.53473153
16.8482639528
15.6585847458
11.7758042152
0
0
0
0
0
0
0
0
0
5.30353052487
4.4959068601
4.22319304138
3.66899863307
9.95026798766
15.5759591703
15.481421309
12.949128085
14.0081227259
22.0676353681
30.6256234187
36.3095536091
36.9990552135
34.2137985833
22.4893428907
13.332042131
0
0
0
0
0
0
0
0
0
0
0
0
0
0
0
0
0
0
0
0
0
0
0
0
0
0
0
9.69932272317
8.89161656125
15.4254312739
9.76670465829
11.4635169742
8.30823313086
9.07001596633
13.6711910785
15.3007751889
18.7796426383
15.8852948983
13.6286737881
9.32783025302
14.2580364492
13.4778686005
10.2367693475
9.9394992521
11.0962549203
7.45468690817
9.20900488574
11.1385765098
7.57467138684
8.1919631781
12.970085281
14.5849713682
16.2716534406
15.7797403385
11.523503349
0
0
0
0
0
0
0
0
3.03872395165
4.48772317497
5.3881612521
3.95623526776
8.4665266814
16.3295901071
18.7558126546
17.396205852
16.5639440208
22.0749826887
32.3506267596
37.8820548141
31.1508902635
26.0935615766
10.2582325781
3.51002686403
0
0
0
0
0
0
0
0
0
0
0
0
0
0
0
0
0
0
0
0
0
0
0
0
0
0
0
0
11.4932782331
9.57450262056
15.2875181866
13.2955993159
12.9287652974
9.5844057552
9.14742744259
14.5896307852
12.3812889194
18.8225451816
16.4891902496
14.0669711654
9.9461475322
14.6947056333
13.7982059124
10.8300940316
13.3533862871
12.8098182021
8.11146467034
10.9428167933
12.4725966903
9.41764714446
6.45745458658
12.6887391365
14.4038207054
15.6607122279
15.5681223953
11.4069173782
0
0
0
0
0
0
0
0
4.83636865092
4.95750503834
3.92149904441
7.36025454227
16.1500131007
21.1478247091
22.0249369796
21.4056874819
23.2137131787
30.3731672241
35.6087540649
23.9768619692
0.360747136079
1.60595606701
0
0
0
0
0
0
0
0
0
0
0
0
0
0
0
0
0
0
0
0
0
0
0
0
0
0
0
0
0
0
11.8951514688
10.0668933271
15.0137580489
13.7616007392
13.4254519334
10.9266271533
9.8214271306
15.7710792775
12.913537665
19.0026404712
17.1013430225
14.5625246785
10.7405029849
15.1551013455
14.1600265768
11.4443207749
13.9873037592
13.3292465721
8.8136389718
12.7646130986
12.6510144892
8.77067558438
8.16055862713
7.85934335865
13.7968811609
14.6068315877
14.8615082127
11.3432898741
0
0
0
0
0
0
0
6.16285489513
5.81955405879
6.90115107071
6.33506074487
15.5900323717
22.1485126373
25.1865851614
25.1594506723
25.0868251785
27.9192410374
31.1202432785
17.8914835089
0
0
0
0
0
0
0
0
0
0
0
0
0
0
0
0
0
0
0
0
0
0
0
0
0
0
0
0
0
0
0
0
0
11.187908312
10.5949041964
14.8663410151
13.5015802719
13.7752658495
12.0271666773
10.4468497158
16.8810170885
14.6073481399
19.1917790936
17.732294251
15.0789657734
11.675298197
15.6454407971
14.5829281038
12.2583376748
14.3960481406
13.7913297357
9.69756360784
13.3679479095
9.01339163884
8.68395978363
8.47928970478
9.38815166483
10.302236724
10.2072394075
13.1109406174
11.3829223843
0
0
0
0
0
0
0
3.22129989465
5.69341281194
8.80767427469
12.7617244916
21.6832137856
26.4144341984
27.9850662391
26.6746553951
25.2651181871
23.5378885901
6.16838124506
0.0191001294727
0
0
0
0
0
0
0
0
0
0
0
0
0
0
0
0
0
0
0
0
0
0
0
0
0
0
0
0
0
0
0
0
0
10.9563407251
11.0322363402
14.849425132
10.2378705322
13.7793863113
12.4634971099
10.8351409639
16.9759954766
14.8905510856
19.4331930804
18.4415001303
15.6127997063
12.7746620315
16.1493937183
15.0438649311
13.2226900408
14.6536962151
14.3643853927
10.7176830142
14.2390488113
10.0576512765
11.2779022809
9.77764616043
10.6795169455
13.3795198964
13.6338173408
11.9595986722
11.4398044064
0
0
0
0
0
0
0
5.97681137585
6.23960757334
11.4544862171
18.5035880746
26.1280697128
29.2904699159
29.1825413591
24.5738029931
16.4746502101
1.24603062761
0
0
0
0
0
0
0
0
0
0
0
0
0
0
0
0
0
0
0
0
0
0
0
0
0
0
0
0
0
0
0
0
0
0
0
11.3380041151
11.5225343622
14.5536033029
10.2751716093
13.6632526486
12.4413287435
11.0850304907
16.5567010696
15.152298851
19.5080951805
19.2160125747
16.1492133362
14.0666792065
16.632178715
15.5011377982
14.2119950798
14.8156939155
15.0691033363
11.908092706
15.09570257
12.0180828415
13.9837750041
13.6093249933
10.412640289
13.3306838914
14.1164407316
14.2315221165
11.2496652448
0
0
0
0
0
0
0
1.02255014719
6.42458895239
13.6154031993
23.0085775548
29.8350932222
31.3582673555
28.5043960297
15.2946984087
1.283861951
0.579209714069
0
0
0
0
0
0
0
0
0
0
0
0
0
0
0
0
0
0
0
0
0
0
0
0
0
0
0
0
0
0
0
0
0
0
0
11.8445904024
14.7154141158
14.1443645604
11.2196313437
13.8041690301
12.3997759564
11.3099995561
16.0946249185
15.462783708
19.0818694871
20.0559870806
16.6988307463
15.1901385709
16.7735443974
15.9755547602
14.7841570712
13.8127998961
15.7973692482
13.4461999408
15.8416005277
14.7857050742
14.8599483999
14.2709196937
13.7766004626
11.2265252194
11.4236409779
14.618845666
6.98346214964
0
0
0
0
0
0
0
0
6.6241591118
15.2669030299
26.7004830984
32.8178854867
33.1293073146
23.7164156974
1.52214061917
1.00686154989
0.224679744861
0
0
0
0
0
0
0
0
0
0
0
0
0
0
0
0
0
0
0
0
0
0
0
0
0
0
0
0
0
0
0
0
0
0
0
12.0906209763
15.0191190992
14.3674711174
11.9854968125
14.1927662227
12.6638702149
11.5951443321
15.7113349871
15.8394838915
18.2405274567
20.8318346985
17.3831168387
15.6277590614
16.7873469197
16.6573128343
15.2028370868
12.8782283024
16.3496508439
15.3978822545
16.4118050509
15.731531226
15.8867946323
11.9826157948
12.3360185495
11.0068456468
14.5005005429
14.9636505838
12.6063323876
0
0
0
0
0
0
0
0
4.57509603735
16.2187943028
29.4255409184
35.4274460011
33.11741539
3.60836031259
1.23013392187
0.74367747619
0
0
0
0
0
0
0
0
0
0
0
0
0
0
0
0
0
0
0
0
0
0
0
0
0
0
0
0
0
0
0
0
0
0
0
0
12.3072461667
15.0668044841
14.6175953925
12.3307434315
14.6403460234
13.2387592004
11.9745977788
15.5139198734
16.35632855
16.8162780699
21.2718639022
18.271454608
15.9108408603
15.8004009656
17.4945842651
15.8543975995
12.9450085271
16.8569457661
16.0597049932
16.7327176651
16.4830953959
16.4473518676
16.0478346025
16.0823671318
15.2567735765
13.3317935973
15.5556799555
12.5129206933
3.21133256367
0
0
0
0
0
0
0
0
14.832748607
31.4964376172
38.1535478863
28.5255032014
0.724716771336
0.777736024747
0.458178327497
0
0
0
0
0
0
0
0
0
0
0
0
0
0
0
0
0
0
0
0
0
0
0
0
0
0
0
0
0
0
0
0
0
0
0
0
12.6037246841
15.0378495321
14.8708171445
12.5062461558
15.0695873245
14.1131555223
12.4010536611
15.486259962
17.0603023502
14.7351276292
21.3563492512
19.2800355353
16.4561067197
13.722036185
18.2835067158
16.6089181811
13.7586253868
17.507006814
16.4595520578
16.3751255034
17.3690924014
14.1310688359
17.1027181423
17.363415374
16.5956169521
16.2065072984
16.1109945069
13.5376601607
8.41981413357
0
0
0
0
0
0
0
0
9.04708632938
34.6206705359
38.5527895427
8.77780784315
0
0.174646622742
0
0
0
0
0
0
0
0
0
0
0
0
0
0
0
0
0
0
0
0
0
0
0
0
0
0
0
0
0
0
0
0
0
0
0
0
0
12.9334748689
14.9810358359
14.3103063884
12.6990257017
15.4484617796
14.9991321378
12.7740249301
14.485960087
18.0989003204
15.8422135576
21.0914963379
20.2688920384
17.2251708334
14.2436559042
18.9203107029
17.3288788859
15.1651860673
18.2830766874
17.1290185072
14.5452458768
18.372636412
16.1873599603
18.1986475315
17.7988050097
17.3733863397
17.2800107735
17.1265308557
15.1861459464
13.8851335385
5.65932089507
0
0
0
0
0
0
0
0.802297628449
33.9887907578
31.8097699514
0.120816611541
0
0
0
0
0
0
0
0
0
0
0
0
0
0
0
0
0
0
0
0
0
0
0
0
0
0
0
0
0
0
0
0
0
0
0
0
0
0
0
13.1951156009
14.8867244224
13.4758909369
13.2502513976
15.8286371548
15.3042633079
13.2035309805
13.1946958108
18.3265132947
17.0037932119
20.0339937785
21.2277222887
18.087379373
15.8694724038
19.3091095766
18.0248417163
16.9876133559
18.6542897214
18.1161196815
15.8784735862
19.1739286478
18.046137033
18.8069260094
17.4583187823
19.1610709323
18.3844783736
18.6185681978
18.3886856323
17.4078408164
15.3714242268
0.761399196379
0
0
0
0
0
0
0
18.9623275069
19.4932297715
0
0
0
0
0
0
0
0
0
0
0
0
0
0
0
0
0
0
0
0
0
0
0
0
0
0
0
0
0
0
0
0
0
0
0
0
0
0
0
0
13.4357594654
13.7086344378
14.0268458045
15.2723266652
16.2449206027
15.5917724867
13.8562780166
13.2570613926
17.6072824472
17.7723690183
18.9045863221
22.0370945339
19.0534664091
17.2919147565
19.3105286646
18.9114085691
17.510122137
18.6989335249
19.2774814124
17.9597310404
19.6617367872
19.17174661
19.2049258815
19.644806535
20.0177253503
17.0436303956
19.35207992
19.2764861866
18.9089192857
19.0341885773
15.8495648242
1.18085718938
0
0
0
0
0
0
2.75256259757
0
0
0
0
0
0
0
0
0
0
0
0
0
0
0
0
0
0
0
0
0
0
0
0
0
0
0
0
0
0
0
0
0
0
0
0
0
0
0
0
0
13.6761480844
13.6447427859
17.0625273721
16.7767811837
16.536747759
15.825788953
14.678722283
13.7677497395
17.1853629173
18.701342213
16.969165512
22.1053728249
20.2425825999
17.760292853
18.1886492051
20.0554442348
18.0586753992
16.4467667565
20.2332935067
18.8264122412
19.860925212
20.57614032
17.4580172583
21.2506982258
20.7654422208
20.9756248002
21.0947596427
20.4608385388
20.6301581908
20.3537512103
18.7791947983
17.5581682113
11.8242154276
0
0
0
0
0
0
0
0
0
0
0
0
0
0
0
0
0
0
0
0
0
0
0
0
0
0
0
0
0
0
0
0
0
0
0
0
0
0
0
0
0
0
0
0
0
0
0.0899180706147
13.8336296084
14.1439598739
14.6826190183
16.7703075068
16.5630929589
16.0274974932
15.5690791671
14.1967845441
16.9586780121
19.3114011219
17.4476259832
21.1171525749
21.6751399272
18.6468410066
16.3476699169
20.776746974
19.147453376
17.2319178641
20.6134505138
19.6614204949
17.8659766241
22.167371466
20.1724321527
21.6071164842
20.8646743699
22.5691242881
22.0481478057
21.6703995395
21.9667423306
22.1175496041
19.8603691684
22.0159821466
19.0671260856
16.4286352616
13.3437972504
6.13694083928
0
0
0
0
0
0
0
0
0
0
0
0
0
0
0
0
0
0
0
0
0
0
0
0
0
0
0
0
0
0
0
0
0
0
0
0
0
0
0
0
0
0
0
0.225283995449
13.9341915517
14.3791367507
14.3903924444
16.6049890903
16.9797022857
16.3852308191
16.0970089609
14.4944824991
15.7115961584
19.3298307349
18.2776549345
19.5569161596
22.9686161852
20.0816591716
18.2206483661
20.9131541334
20.5135942683
18.8328248605
20.6631396742
21.1917985934
19.787551847
22.5637517515
21.74669589
22.0870396778
23.1496022214
23.2214277714
23.4642366877
23.9393825019
23.4697560631
24.1623973625
21.9574007297
24.1556556964
23.1540110188
23.3709379114
20.2066255977
21.3019264878
18.9336710662
0
0
0
0
0
0
0
0
0
0
0
0
0
0
0
0
0
0
0
0
0
0
0
0
0
0
0
0
0
0
0
0
0
0
0
0
0
0
0
0
0
0.225283995449
0.225283995449
14.1118593536
14.5124669102
15.7669173952
17.8150018401
17.8461897951
16.8572186115
16.3526407331
14.8418627365
14.8804382198
18.5254869859
19.3365211483
17.0551210706
22.2877562461
21.8154517924
19.0961265651
19.3465546442
21.8545658054
19.794507804
18.6781769751
22.0399442961
20.9298935055
22.6981476648
23.5853421481
20.9214441814
24.0144312443
22.3672122681
25.7885598339
24.7552733108
24.0595971908
25.7298550631
25.8206718872
25.7353191759
24.7077504036
24.7796807631
24.8395224105
24.064447043
25.2117695747
19
0
0
0
0
0
0
0
0
0
0
0
0
0
0
0
0
0
0
0
0
0
0
0
0
0
0
0
0
0
0
0
0
0
0
0
0
0
0
0
0.109952638095
0.225283995449
0.225283995449
14.3816562378
14.5927327432
17.221508491
19.2837270576
18.0818197128
17.1780432298
16.6048562034
15.3645148931
14.7532352317
17.8277419784
19.8371977824
18.6937673367
20.3738463893
23.8205140071
20.63905462
18.8728731115
22.5628278699
21.4553006899
19.9141918126
22.6063787196
22.4440127847
21.5185404677
24.7546085115
23.3864966117
24.8045564849
25.3237962716
25.9092793176
25.2785769868
26.0484647422
25.9429193952
26.1655146523
26.1173606221
25.766239219
26.5535201809
26.9677632218
27.4613034908
27.5773157333
26.3765418776
0
0
0
0
0
0
0
0
0
0
0
0
0
0
0
0
0
0
0
0
0
0
0
0
0
0
0
0
0
0
0
0
0
0
0
0
0
0
0.136884403461
0.225283995449
3.61191112806
3.81123646767
14.7800317859
14.8680196726
16.7546592159
18.3132759175
18.1735357359
17.451196426
16.8729432805
16.1026848528
14.8400339987
16.3154572031
19.2156864459
19.8150174
17.7808047215
22.8878835397
22.752606847
20.0107691278
20.7742332268
22.8679405487
21.0431106918
20.9171781117
23.8097317372
22.6333607658
24.9712721942
25.5488124157
22.8220187677
25.8923628468
26.286193754
27.2332225332
26.3978304373
25.8653188711
27.9256239821
27.5867005325
27.6888917604
28.1804614574
27.2252420183
29.1250951417
29.3709487969
27.1
10
0
0
0
0
0
0
0
0
0
0
0
0
0
0
0
0
0
0
0
0
0
0
0
0
0
0
0
0
0
0
0
0
0
0
0
0
0
0
2.80364223107
9.46355331766
14.104699332