/*--------------------------------*- C++ -*----------------------------------*\
| =========                 |                                                 |
| \\      /  F ield         | OpenFOAM: The Open Source CFD Toolbox           |
|  \\    /   O peration     | Version:  v1806                                 |
|   \\  /    A nd           | Web:      www.OpenFOAM.com                      |
|    \\/     M anipulation  |                                                 |
\*---------------------------------------------------------------------------*/
FoamFile
{
    version     2.0;
    format      ascii;
    class       surfaceScalarField;
    location    "38";
    object      phia;
}
// * * * * * * * * * * * * * * * * * * * * * * * * * * * * * * * * * * * * * //

dimensions      [0 3 -1 0 0 0 0];
oriented        oriented;


internalField   nonuniform List<scalar> 
12640
(
7.66245466448e-07
-7.10465299821e-07
1.53979478683e-06
-7.21922606044e-07
2.31410599612e-06
-7.30881517318e-07
3.03599686266e-06
-6.79102268188e-07
3.52040664302e-06
-4.42168382795e-07
3.62217602686e-06
-6.34636901279e-08
3.48013785976e-06
1.75150813858e-07
3.60075810695e-06
-8.97957041161e-08
4.08561462791e-06
-4.51273936923e-07
4.51877600843e-06
-4.00812575575e-07
4.92435793536e-06
-3.76991331401e-07
5.61839837989e-06
-6.64076408441e-07
6.29038740987e-06
-6.39903095941e-07
6.697745267e-06
-3.76198676933e-07
6.89717482747e-06
-1.72051975646e-07
7.27435564399e-06
-3.53876574862e-07
7.76724085973e-06
-4.69516158562e-07
8.05846121891e-06
-2.69682475148e-07
8.01756944956e-06
6.28775753236e-08
7.63892065227e-06
4.04346152741e-07
7.30885623282e-06
3.59549296773e-07
7.21860542322e-06
1.22566057304e-07
7.29047240714e-06
-3.36969411588e-08
7.61769882093e-06
-2.85449314789e-07
8.00823846202e-06
-3.50479343698e-07
8.30818202216e-06
-2.57350737082e-07
8.79347352811e-06
-4.37100650124e-07
9.34876102554e-06
-5.04300123102e-07
9.76346892339e-06
-3.600021844e-07
9.9291202931e-06
-1.14950326192e-07
1.01977963528e-05
-2.13532504526e-07
1.05084633016e-05
-2.56993268088e-07
1.03354491415e-05
2.27273132154e-07
9.89907384692e-06
4.88803148358e-07
9.19543805041e-06
7.60410073539e-07
8.13099875156e-06
1.1173038203e-06
6.88900759513e-06
1.29257042073e-06
5.72648992744e-06
1.21541088274e-06
4.64994977122e-06
1.14208213322e-06
3.52505898017e-06
1.22198895175e-06
2.62920554184e-06
1.01830809007e-06
2.29548835756e-06
4.47467665149e-07
1.98428213085e-06
4.27413588053e-07
1.63746548945e-06
4.63454163052e-07
1.47001232134e-06
2.82354235442e-07
1.33145418235e-06
2.52453438387e-07
1.20971505961e-06
2.28806317992e-07
1.1348005846e-06
1.74462418059e-07
1.12280768548e-06
1.03215566184e-07
1.30315701713e-06
-9.52816879416e-08
2.00950162013e-06
-6.04121058839e-07
3.16004525846e-06
-1.02375488276e-06
3.21764788275e-06
7.86835151073e-08
2.43372109849e-06
9.34321249591e-07
1.65249825098e-06
8.70888926697e-07
8.86842223295e-07
8.16575293652e-07
3.61644634406e-07
6.40623670759e-07
4.50258133238e-08
5.06259567737e-07
-1.359445094e-07
4.3242732703e-07
-8.91375845231e-08
2.0643004353e-07
-1.10992188477e-07
2.00549594518e-07
-1.25043034992e-07
1.1582866578e-07
-7.48003881526e-08
5.87140775979e-08
-2.91900391296e-09
-5.26667375204e-09
2.06539617926e-08
1.47378407353e-08
2.72392041807e-08
1.92255343896e-08
2.40733005902e-08
2.49725960097e-08
1.07310505543e-08
3.55941209554e-08
-1.53019801357e-08
5.02353033411e-08
-5.44179625352e-08
6.4737303057e-08
-1.01139609051e-07
7.23350247247e-08
-1.46400554908e-07
6.88941004854e-08
-1.81118105676e-07
5.54230273117e-08
-2.00494656665e-07
3.74251778798e-08
-2.04355799932e-07
1.91282094417e-08
-1.93504097852e-07
3.46440997952e-09
-1.74412075255e-07
-2.76082062093e-09
-1.32328852584e-07
-2.54889498004e-08
-8.45440021371e-08
-4.0118434113e-08
-6.73517858447e-08
3.5271357437e-07
-1.03197889681e-06
8.05577918611e-07
-1.13930256653e-06
1.25801604026e-06
-1.15317526359e-06
1.7697491683e-06
-1.16404961803e-06
2.66039748909e-06
-1.30236040116e-06
3.59125563058e-06
-9.57647728931e-07
4.20914449765e-06
-4.03545488338e-07
4.63001142805e-06
-4.69953485126e-07
5.01027899469e-06
-7.92239058779e-07
5.5003596787e-06
-8.52610251587e-07
6.01960488118e-06
-8.61486054996e-07
6.32685306886e-06
-9.3819754498e-07
6.57483482089e-06
-8.58182160873e-07
6.9062257701e-06
-6.80144149452e-07
7.27269305061e-06
-5.14162220728e-07
7.60998571934e-06
-6.6692509032e-07
7.64084990634e-06
-4.82758872543e-07
6.95864411838e-06
4.31659254949e-07
6.32393136292e-06
7.15776035499e-07
6.10541975067e-06
6.44268029017e-07
6.07449524971e-06
4.17961402097e-07
6.60272131472e-06
-3.68095945456e-07
7.39292532245e-06
-7.84630267703e-07
7.62373910124e-06
-4.74142004362e-07
7.88634332314e-06
-5.72728606852e-07
8.76966375004e-06
-1.09322279476e-06
9.4030652637e-06
-1.02271242331e-06
9.64283273517e-06
-6.92022563383e-07
9.72311462837e-06
-3.91635447086e-07
9.71283910703e-06
-5.31962711192e-08
9.35947968749e-06
1.87981347471e-07
8.86903368013e-06
2.73466283432e-07
8.26000760825e-06
8.78925989588e-07
7.50536716479e-06
1.28733744779e-06
7.35203195868e-06
9.48954191473e-07
6.61602016915e-06
1.8999973163e-06
5.44011917158e-06
2.5215583001e-06
4.84958061899e-06
1.85993479398e-06
4.49603120378e-06
1.57942037367e-06
3.71551460492e-06
2.10800757941e-06
2.11270224205e-06
2.76898609359e-06
9.87844210933e-07
1.72890769625e-06
8.7431822042e-07
7.49066204336e-07
7.69759338775e-07
8.37798344953e-07
9.0335347957e-07
3.81023447209e-07
1.02141148944e-06
3.45575870081e-07
1.14951539248e-06
3.01273985158e-07
1.32607775468e-06
1.96160643108e-07
1.41876460423e-06
2.07143686375e-07
1.27217771501e-06
2.54281348698e-07
1.38802604429e-06
-5.00914375612e-07
1.83618650258e-06
-1.34131402167e-06
2.57919334874e-06
-5.7119043562e-07
2.57934387724e-06
1.03184885905e-06
2.28048615222e-06
1.237222714e-06
3.30092668947e-06
-6.03378609218e-08
5.7499791488e-06
-1.38939671901e-06
6.4723657436e-06
4.43624977183e-07
4.42539103094e-06
3.24380372352e-06
1.8312915087e-06
3.44397832202e-06
4.94533071007e-07
1.9054157119e-06
7.76077404959e-08
6.78497179972e-07
5.30559272501e-08
2.23670214876e-07
3.43583329481e-08
8.03046057643e-08
4.02323797641e-08
4.56005303487e-08
4.28931077711e-08
4.08096776935e-08
3.73528499602e-08
5.0959570705e-08
2.24562226206e-08
7.18667381961e-08
-5.52803540757e-09
1.0114907978e-07
-4.68230159489e-08
1.30943308929e-07
-9.59602316975e-08
1.45961261566e-07
-1.42968262373e-07
1.38138491569e-07
-1.85301675047e-07
1.17525658981e-07
-2.21253052072e-07
9.2274633546e-08
-2.42508912236e-07
5.77920100124e-08
-2.45589248494e-07
2.44503799981e-08
-2.2330322944e-07
-8.89349889571e-09
-1.78975143587e-07
-5.33516475177e-08
-9.47480143103e-08
-9.69983385086e-08
-1.58756816358e-07
4.92074418284e-07
-1.4957232859e-06
6.57284768613e-07
-1.27347988676e-06
1.4182856944e-06
-1.88173580638e-06
2.50362600162e-06
-2.2144611202e-06
3.41468829439e-06
-2.17887182496e-06
3.73521051517e-06
-1.24919875704e-06
3.86632593951e-06
-5.02423870787e-07
4.29778640271e-06
-8.6220460051e-07
4.86697717445e-06
-1.31910788902e-06
5.44780390746e-06
-1.39415642256e-06
5.965234203e-06
-1.34332792772e-06
6.3136676608e-06
-1.25707372777e-06
6.55808092442e-06
-1.07720192937e-06
6.77521294109e-06
-8.74375428092e-07
6.65922918314e-06
-3.7826527346e-07
5.44423757993e-06
5.64020373613e-07
4.06819693879e-06
9.06032138919e-07
3.70388177861e-06
8.08250351873e-07
3.79121799936e-06
6.43075730174e-07
4.51691116338e-06
-5.79272589917e-08
5.8249250962e-06
-8.56387021486e-07
6.47193850809e-06
-9.76638140375e-07
6.6981840136e-06
-9.7295870847e-07
7.66031583815e-06
-1.39497646788e-06
8.7002292766e-06
-1.56650837024e-06
9.07294468769e-06
-1.42217019364e-06
9.10045288064e-06
-1.00477675444e-06
9.10738440457e-06
-6.54605410243e-07
8.91413062281e-06
-1.52873058617e-07
8.78937523721e-06
1.153259694e-07
8.47300295658e-06
5.43312081379e-07
7.87694160957e-06
9.09282248314e-07
7.87359942101e-06
9.14955242801e-07
6.94436181534e-06
2.25242572129e-06
5.66898355045e-06
2.26534983215e-06
5.81597862087e-06
1.7989495702e-06
5.06900750619e-06
3.3399220183e-06
3.60677441291e-06
3.4075832157e-06
4.36759739237e-06
9.51170721936e-07
8.10986966116e-06
-1.42171459453e-06
1.59348463793e-05
-4.53666194422e-06
2.88565178723e-05
-1.05919396405e-05
4.5834403176e-05
-1.55053181952e-05
6.20732882146e-05
-1.46241600813e-05
7.47893007004e-05
-1.16603609835e-05
8.50842739908e-05
-9.33835023474e-06
9.20939779332e-05
-6.13152461826e-06
9.4192623301e-05
-1.34300910275e-06
8.96578961087e-05
5.2922149631e-06
7.73444940684e-05
1.31456653398e-05
5.72215508255e-05
2.0141137264e-05
3.46486817957e-05
2.15333485794e-05
1.64772536833e-05
1.77901502518e-05
7.39763909084e-06
1.02701822834e-05
4.6678439646e-06
4.15714076589e-06
5.92647956325e-06
-9.90742580999e-07
7.42269083906e-06
-2.42802770287e-06
5.90256437005e-06
2.47279505751e-06
4.34492276413e-06
5.28410839328e-06
3.11899646707e-06
5.05510314127e-06
1.58940914065e-06
3.72823291624e-06
4.63209756275e-07
2.06497401414e-06
1.42065041864e-07
7.1334582555e-07
6.23592750363e-08
2.17303353709e-07
6.08817507007e-08
8.11608977391e-08
6.08995248073e-08
6.40424629725e-08
5.45419598284e-08
7.69982987806e-08
3.84465461163e-08
1.06941635367e-07
9.6696949995e-09
1.50313733221e-07
-3.51876013481e-08
1.9754625181e-07
-9.42180331343e-08
2.2662539897e-07
-1.61406630335e-07
2.25990317673e-07
-2.25266923465e-07
2.01393732248e-07
-2.66674093939e-07
1.51827448922e-07
-2.84536775498e-07
9.24271001304e-08
-2.83385107227e-07
3.90398748336e-08
-2.59910137066e-07
-1.33598451264e-08
-2.09230370425e-07
-8.54294041546e-08
-1.01991160085e-07
-1.99554812499e-07
-2.47512482266e-07
3.27291348989e-07
-1.79360876317e-06
3.48230371532e-07
-1.27439271944e-06
1.47289048821e-06
-2.97088878271e-06
2.22081452894e-06
-2.92834060074e-06
1.82662314749e-06
-1.76309176361e-06
1.19337343241e-06
-6.06858264559e-07
1.69526491499e-06
-9.8792232579e-07
3.14175865798e-06
-2.27307475419e-06
4.40470402555e-06
-2.54005909088e-06
5.21417935146e-06
-2.16588373786e-06
5.86152016263e-06
-1.95882357239e-06
6.24162687121e-06
-1.61101093154e-06
6.09548673946e-06
-9.10877900801e-07
5.12908970084e-06
1.06290044032e-07
3.95519287346e-06
8.06904707497e-07
3.54786057259e-06
9.84727675177e-07
3.5842296255e-06
8.83550453466e-07
4.01562626984e-06
3.94262639152e-07
5.23301022717e-06
-5.46871145756e-07
6.27740753248e-06
-1.06945301941e-06
6.58490634864e-06
-1.12786043413e-06
7.09959891696e-06
-1.45048743012e-06
7.9605845982e-06
-1.79020179272e-06
8.46505241677e-06
-1.8552592589e-06
8.6252206578e-06
-1.68729682758e-06
8.53365182758e-06
-1.29053225446e-06
8.58069557538e-06
-1.01402573414e-06
8.45711141562e-06
-4.90022337844e-07
8.46071124685e-06
-1.16711077121e-07
8.2214634649e-06
3.92275009665e-07
8.05193541986e-06
7.51532286424e-07
7.86238327799e-06
1.12756523608e-06
6.75248950826e-06
2.05610614153e-06
6.90584900978e-06
2.14451053687e-06
6.6177530415e-06
2.60563254233e-06
5.69569250013e-06
2.80055744806e-06
7.26897525871e-06
1.87320358911e-06
1.20068838497e-05
-1.11671543353e-06
2.30301823495e-05
-9.54090800996e-06
4.41687734348e-05
-2.19559195052e-05
6.98478907451e-05
-2.94376654909e-05
8.20820152494e-05
-2.22573255098e-05
8.84800593927e-05
-2.14454729897e-05
9.46973583247e-05
-2.04436592031e-05
0.000101585711477
-1.81893685575e-05
0.000107050423972
-1.44681510853e-05
0.000110063080277
-8.82060811999e-06
0.00011020028268
-1.16531747455e-06
0.000108193850869
7.60266399668e-06
0.000104866576791
1.67679053875e-05
0.00010052182946
2.4776200309e-05
9.22329823064e-05
3.01230178776e-05
7.90071583109e-05
3.13495846254e-05
6.06376122802e-05
2.9045575309e-05
4.02733652767e-05
2.50408986922e-05
2.18465522502e-05
1.80122602469e-05
9.573195572e-06
1.02547865164e-05
3.29429103638e-06
9.03724924166e-06
1.19016012524e-06
7.61568822299e-06
7.54274017337e-07
5.69215912655e-06
6.22164022158e-07
4.0669141613e-06
3.91427009572e-07
2.47288729795e-06
1.46726037101e-07
1.06969451827e-06
6.36344253238e-08
3.70856474061e-07
7.55521176351e-08
1.05717047144e-07
8.2729209836e-08
7.8792467618e-08
7.99399108984e-08
9.69012185157e-08
6.41210548723e-08
1.39722045229e-07
3.16765460138e-08
2.00836613507e-07
-2.478778207e-08
2.7383583516e-07
-1.07378273956e-07
3.29972437842e-07
-1.93453945155e-07
3.32273966112e-07
-2.50881586083e-07
2.76356173888e-07
-2.84320144303e-07
2.00717285107e-07
-3.06265076509e-07
1.2945996404e-07
-2.99517984088e-07
4.88980908715e-08
-2.46567174722e-07
-5.48718593632e-08
-1.79533206081e-07
-1.44596570552e-07
-9.13278941307e-08
-2.66565044253e-07
-3.36020594677e-07
6.9815778249e-09
-1.78815464254e-06
3.60523977831e-07
-1.60871362932e-06
1.36140770901e-06
-3.9409699258e-06
1.53266349608e-06
-3.07720399367e-06
1.08437898107e-06
-1.3025415725e-06
1.28344806862e-06
-7.94784409198e-07
2.37962798069e-06
-2.05947706755e-06
3.63145137267e-06
-3.48763984783e-06
4.35365485073e-06
-3.22477297647e-06
4.95614585887e-06
-2.73528194585e-06
5.33662537859e-06
-2.31301699705e-06
4.96687326215e-06
-1.22319433321e-06
4.04313042875e-06
2.39010830542e-08
3.58740255536e-06
5.72258719539e-07
3.67626084648e-06
7.31984655141e-07
4.03024625552e-06
6.46979807924e-07
4.77882630359e-06
1.55989814649e-07
5.97282108952e-06
-7.6922901042e-07
6.4428350013e-06
-9.85574380214e-07
6.26830581766e-06
-8.6296540986e-07
6.74837423301e-06
-1.57008562184e-06
7.51455468864e-06
-2.17379374155e-06
8.01081370747e-06
-2.24462624292e-06
8.12452075255e-06
-1.93225060051e-06
8.09886815204e-06
-1.62450628655e-06
8.24628900218e-06
-1.40519243136e-06
7.98922841825e-06
-7.21499541825e-07
7.95706686286e-06
-4.23660518116e-07
7.78439010261e-06
8.92743609764e-08
7.73084135109e-06
4.79506329931e-07
7.63385376504e-06
8.78221033807e-07
7.46773267759e-06
1.32217710126e-06
8.43900662521e-06
1.1249256342e-06
7.89804533189e-06
2.74583232248e-06
7.93408228936e-06
2.66719905503e-06
9.79781603309e-06
1.07142612125e-06
1.62166902019e-05
-4.34869008731e-06
4.28183048201e-05
-2.70876484033e-05
7.63455355534e-05
-4.2259336058e-05
8.89208837441e-05
-3.39886315279e-05
9.07444457494e-05
-3.08873383534e-05
9.38641951626e-05
-2.50813868283e-05
9.65435234781e-05
-2.38682994897e-05
9.92590003925e-05
-2.29219809153e-05
0.000101571053677
-2.02734025667e-05
0.000102397930709
-1.50691312734e-05
0.000101162764495
-7.35754946931e-06
9.7912494951e-05
2.31598836941e-06
9.31844771317e-05
1.25566382982e-05
8.7956782482e-05
2.22123906522e-05
8.25433275706e-05
3.04013865288e-05
7.65524893746e-05
3.63251650907e-05
6.84873776685e-05
3.96375894347e-05
5.72073934606e-05
4.05644158547e-05
4.34148698919e-05
3.91136605254e-05
2.76729663784e-05
3.40392865211e-05
1.38933877795e-05
2.42537855631e-05
5.25335223478e-06
1.78457712052e-05
4.63205056375e-07
1.25788436554e-05
-6.2892220782e-07
6.95032671846e-06
-4.8007070852e-07
4.04005913641e-06
-2.04585564596e-07
2.29785050257e-06
4.48610698981e-08
9.27345581049e-07
5.47036688104e-08
4.30460657114e-07
9.39940093367e-08
1.05732789889e-07
1.21053606564e-07
7.78635649841e-08
1.2363766916e-07
1.13584304847e-07
1.05663787302e-07
1.74483867483e-07
6.52190187139e-08
2.58768291881e-07
-9.41322165934e-09
3.67452883844e-07
-1.13893428046e-07
4.54303909045e-07
-2.01391362891e-07
4.37708251625e-07
-2.64428789765e-07
3.5503749258e-07
-3.22619743045e-07
2.74191309088e-07
-3.5563040384e-07
1.78235710296e-07
-3.37869768187e-07
4.50141988081e-08
-2.81763407727e-07
-9.65791000865e-08
-2.05772649777e-07
-2.06108636901e-07
-1.0297557404e-07
-3.63085569409e-07
-4.26321446923e-07
9.03571813745e-09
-1.78473683049e-06
5.90568920196e-07
-2.17495331156e-06
1.01405488446e-06
-4.33939913929e-06
1.01043260972e-06
-3.05532630132e-06
8.55194639775e-07
-1.13843848694e-06
1.63918102289e-06
-1.56278073885e-06
3.12725902383e-06
-3.51690005065e-06
3.8329594854e-06
-4.1577713502e-06
4.20432858352e-06
-3.56544400743e-06
4.25022903016e-06
-2.75652261857e-06
3.75276297559e-06
-1.79648944473e-06
2.99832156536e-06
-4.59847783585e-07
2.88370039014e-06
1.4777102612e-07
3.14759369212e-06
3.20650879273e-07
3.61282482893e-06
2.8220857522e-07
4.5125905111e-06
-2.3098203646e-07
5.81510680173e-06
-1.11581683482e-06
6.08839955061e-06
-1.01406922791e-06
5.6943029678e-06
-5.64570073078e-07
6.30271567309e-06
-1.43711335983e-06
7.1219448285e-06
-2.34831173119e-06
7.48691764142e-06
-2.4982093525e-06
7.622811545e-06
-2.34382101005e-06
7.82180262596e-06
-2.09650429063e-06
7.96506100616e-06
-1.73695072359e-06
7.38119245959e-06
-7.92136682586e-07
7.30731325119e-06
-6.20002778304e-07
7.11778358539e-06
-2.05842214552e-07
6.99737360495e-06
2.38530590604e-07
6.75944220593e-06
7.45337516996e-07
6.48234422357e-06
1.17853959499e-06
6.66089727673e-06
1.17607404681e-06
6.52009620043e-06
1.30504392678e-06
8.29456626816e-06
1.05635596552e-06
1.17772569976e-05
-6.61191330844e-07
2.17685129448e-05
-8.69694592449e-06
5.75656074835e-05
-3.9610696204e-05
9.04177626644e-05
-5.93054809023e-05
9.47514450128e-05
-4.62012817253e-05
9.53664899941e-05
-3.43311207247e-05
9.43908636165e-05
-2.96968422468e-05
9.67149814757e-05
-2.72191223862e-05
9.99995738078e-05
-2.69773977964e-05
0.000103006232449
-2.57543697259e-05
0.000104565113346
-2.16532343517e-05
0.000103863932987
-1.41810535027e-05
0.000100702775222
-3.99966952827e-06
9.55933463106e-05
7.63015870471e-06
8.94873611313e-05
1.8865384431e-05
8.34246462796e-05
2.84687048809e-05
7.78542883448e-05
3.6156005145e-05
7.27020318976e-05
4.16564312534e-05
6.75261430626e-05
4.49868470473e-05
6.17932295021e-05
4.64711637951e-05
5.48427648398e-05
4.62286764993e-05
4.59250332206e-05
4.3101972278e-05
3.39888480831e-05
3.62995924946e-05
2.18529482899e-05
3.01051058138e-05
1.01336658676e-05
2.44390316274e-05
1.08816330259e-06
1.60983886575e-05
-5.18287038282e-07
5.73677252735e-06
-4.88867705701e-07
2.34762324908e-06
-1.80795530098e-07
6.84392700695e-07
-1.97796495719e-08
3.72967233111e-07
9.58812312096e-08
3.74934124651e-08
1.66882147196e-07
3.0921391611e-08
1.86694725961e-07
1.1312986719e-07
1.69800069847e-07
2.09987369492e-07
1.16280807409e-07
3.30226369072e-07
1.91480354227e-08
4.84184967951e-07
-9.7252003607e-08
5.90776244165e-07
-1.96283858973e-07
5.54665742017e-07
-3.01592053924e-07
4.7738724643e-07
-3.9341618807e-07
3.83951038524e-07
-4.36788675621e-07
2.40100558572e-07
-4.10368277949e-07
3.78344827743e-08
-3.45821670814e-07
-1.47537385777e-07
-2.58770756148e-07
-2.80153601309e-07
-1.31768325488e-07
-4.64027793087e-07
-5.4787324752e-07
2.01891214597e-07
-1.97744052209e-06
1.10520717052e-06
-3.06148743737e-06
1.42724409687e-06
-4.63988261971e-06
1.03229761715e-06
-2.64442356597e-06
1.14567496271e-06
-1.240606408e-06
2.47102026472e-06
-2.86454301441e-06
3.48159762004e-06
-4.49408145758e-06
3.80316150518e-06
-4.45061224613e-06
3.63731289735e-06
-3.37549249525e-06
3.59424031283e-06
-2.69582082492e-06
3.15575115591e-06
-1.34565938816e-06
2.80879880817e-06
-1.04103123222e-07
2.98645368138e-06
-1.86896151825e-08
3.30476961011e-06
1.69025323538e-08
4.02583257885e-06
-4.1807027602e-07
5.3204088665e-06
-1.49659599973e-06
5.57600967873e-06
-1.34496097033e-06
5.11422038619e-06
-5.29582124246e-07
5.69049212323e-06
-1.11092473342e-06
6.6188129127e-06
-2.32651976535e-06
7.17974290315e-06
-2.86989264053e-06
7.36084280437e-06
-2.64218032813e-06
7.39872767491e-06
-2.34631926214e-06
7.09887482415e-06
-1.76751273086e-06
6.55361444212e-06
-1.16619317019e-06
6.42681375079e-06
-6.42091438454e-07
6.1033251317e-06
-2.71696634107e-07
6.11138821981e-06
-1.90383882668e-07
5.98397933821e-06
3.8912251658e-07
5.71726406935e-06
1.03279629381e-06
5.75563999151e-06
1.16962545841e-06
6.25567536716e-06
7.06792160474e-07
6.82651968366e-06
7.97059132017e-07
1.07246535024e-05
-2.72504153333e-06
2.32059008139e-05
-1.29352522725e-05
6.6593789485e-05
-5.1593833174e-05
0.000102344397671
-7.48382643237e-05
0.000101361685306
-5.80257926444e-05
9.66646068552e-05
-4.12950287315e-05
9.50452484001e-05
-3.25409388392e-05
9.580948196e-05
-3.03095478752e-05
9.93859999485e-05
-3.06504583086e-05
0.000103246517321
-3.06912087061e-05
0.000105517775327
-2.78715632454e-05
0.000105048126333
-2.10189826283e-05
0.000101649815324
-1.06061185331e-05
9.59559312112e-05
1.88217282158e-06
8.91457800313e-05
1.46370045821e-05
8.23887627426e-05
2.58174781932e-05
7.65547951261e-05
3.44858752432e-05
7.20817099006e-05
4.08015803292e-05
6.91124808003e-05
4.4786600366e-05
6.76903528445e-05
4.65594649875e-05
6.78386949943e-05
4.64570626189e-05
6.94170340853e-05
4.47661676486e-05
7.08963829288e-05
4.17141153431e-05
6.89022415854e-05
3.83706071722e-05
6.25822569686e-05
3.64993903136e-05
5.0876717388e-05
3.62264209657e-05
3.23807724102e-05
3.47061190192e-05
1.34866372062e-05
2.47141704682e-05
1.61435593848e-06
1.42718598981e-05
1.76952601708e-08
2.40128858088e-06
2.33143006899e-08
4.58804865114e-07
1.51336493135e-07
-6.40855813257e-08
2.39533193538e-07
-3.69591365426e-08
2.83614340292e-07
9.01372988867e-08
2.75418893934e-07
2.39140206264e-07
2.08520143462e-07
4.19533020739e-07
8.63027849513e-08
6.29856274212e-07
-5.21567621052e-08
7.52205131228e-07
-2.06642631871e-07
7.31020211154e-07
-3.74684529528e-07
6.68580078382e-07
-5.02696592168e-07
5.36384360423e-07
-5.54121813514e-07
3.16977442866e-07
-5.32272442232e-07
3.78612655986e-08
-4.5463385781e-07
-2.00914933739e-07
-3.33009378564e-07
-3.77134392926e-07
-1.83847388051e-07
-5.90235484215e-07
-7.12557035682e-07
3.88882832774e-07
-2.35371324818e-06
1.44371915329e-06
-4.09933454667e-06
1.35117413971e-06
-4.52902397088e-06
6.83825631542e-07
-1.96810608841e-06
1.41910105764e-06
-1.96133148311e-06
2.8454524078e-06
-4.26365803859e-06
3.30357132969e-06
-4.92470427603e-06
3.57668334645e-06
-4.69842281205e-06
3.02063912692e-06
-2.80369451144e-06
2.80977780412e-06
-2.46883805856e-06
2.43391588867e-06
-9.61646329481e-07
2.79237245137e-06
-4.52190814337e-07
3.06725910576e-06
-2.80196225222e-07
3.56556911714e-06
-4.64533221122e-07
4.61682717463e-06
-1.44327863268e-06
5.04809062874e-06
-1.8981933042e-06
4.69905359619e-06
-9.75594774078e-07
5.14195709212e-06
-9.4801186323e-07
6.04360827479e-06
-1.97790716129e-06
6.63547645127e-06
-2.87804381288e-06
6.84668877943e-06
-3.04424090003e-06
6.96368505492e-06
-2.72527935872e-06
7.12384237133e-06
-2.47617985083e-06
7.18933171282e-06
-1.80724571127e-06
6.66423461306e-06
-6.16844351706e-07
6.42869510573e-06
-3.86050692965e-07
6.20079930042e-06
-2.07063112718e-08
5.50778811432e-06
5.24251294232e-07
5.44244585726e-06
4.74494259715e-07
6.16652662929e-06
3.34367204171e-07
6.66311834409e-06
7.05348715099e-07
6.23783492418e-06
1.18856417332e-06
8.40072989782e-06
-1.2892460151e-06
2.04744092685e-05
-1.46287688795e-05
7.0761695777e-05
-6.27842388959e-05
0.000111417291714
-9.17873597109e-05
0.000108222888245
-7.14039731635e-05
9.95285458133e-05
-4.91669518489e-05
9.45888269759e-05
-3.62178236568e-05
9.41425086478e-05
-3.19678385265e-05
9.66225449543e-05
-3.26644011371e-05
0.000100256520519
-3.41556291946e-05
0.000102663120269
-3.29602908954e-05
0.000102329449014
-2.7389348958e-05
9.88711566262e-05
-1.73984759754e-05
9.29351541199e-05
-4.49677606968e-06
8.5753164681e-05
9.24846000494e-06
7.86451033836e-05
2.1934385719e-05
7.24515238159e-05
3.21956313453e-05
6.73655435188e-05
3.97397389139e-05
6.33953639604e-05
4.49239072121e-05
6.05374082506e-05
4.77819467164e-05
5.88113588947e-05
4.84071437671e-05
5.83364424121e-05
4.70372632236e-05
5.91939149116e-05
4.39948227509e-05
6.10049450569e-05
3.99691121421e-05
6.29232078109e-05
3.65024907363e-05
6.41990974201e-05
3.52641758957e-05
6.38614305213e-05
3.65998987537e-05
5.92690967838e-05
3.93168508895e-05
4.40620421812e-05
3.99221231142e-05
2.40860259542e-05
3.43278760244e-05
7.38131974912e-06
1.91696556868e-05
1.0685186786e-06
6.81212374787e-06
4.68770785045e-07
5.91812810517e-07
3.75773082118e-07
7.092985952e-08
4.28125962195e-07
5.42937265102e-08
4.27087062214e-07
2.60948587046e-07
3.5098578974e-07
5.18019933657e-07
1.97662915022e-07
8.06132632766e-07
1.17522651952e-09
9.73022057416e-07
-2.4552761599e-07
1.00359844231e-06
-4.88037167241e-07
9.39033644078e-07
-6.60942520957e-07
7.39611794848e-07
-7.31907611676e-07
4.18449673032e-07
-7.1915876078e-07
5.72442205339e-08
-6.28715310255e-07
-2.63491017884e-07
-4.53647340908e-07
-5.2117771098e-07
-2.40794993669e-07
-7.65596589847e-07
-9.33003631377e-07
5.71738458255e-07
-2.9120206598e-06
1.57935408757e-06
-5.08787681161e-06
1.08865248087e-06
-4.02431268259e-06
1.00066108434e-06
-1.87061171507e-06
2.16429448557e-06
-3.1078770907e-06
2.74999805126e-06
-4.82313824925e-06
3.11046643636e-06
-5.26275696668e-06
3.180310594e-06
-4.749795441e-06
2.99114603693e-06
-2.60017643937e-06
2.90933868039e-06
-2.37237162644e-06
2.7386746303e-06
-7.81121315284e-07
2.98180021748e-06
-6.83788300069e-07
3.32114046746e-06
-6.04996520798e-07
4.04121205827e-06
-1.16266863403e-06
5.19126768853e-06
-2.56395975226e-06
5.18181144097e-06
-1.86436583747e-06
4.99387817943e-06
-7.66543690739e-07
5.47555405397e-06
-1.40091064196e-06
6.17012675756e-06
-2.6344861487e-06
6.47429246584e-06
-3.14361835158e-06
6.43066486472e-06
-2.96232307459e-06
6.14422980305e-06
-2.40973640848e-06
5.85598945668e-06
-2.16307486401e-06
5.62383189782e-06
-1.55515147564e-06
5.65369043318e-06
-6.31147799628e-07
5.59349654985e-06
-3.04702007407e-07
6.03321422053e-06
-4.41974369004e-07
6.41392099409e-06
1.65350120431e-07
6.69727889592e-06
2.10370803978e-07
6.71870080543e-06
3.39473305524e-07
7.30738935983e-06
1.62275143919e-07
8.66558494791e-06
-1.06034991064e-07
1.44505170891e-05
-6.94519074615e-06
7.2374436593e-05
-7.21153130261e-05
0.000119447425191
-0.000109413035498
0.000115012824295
-8.71406418952e-05
0.000103270125313
-5.95258411908e-05
9.50210055171e-05
-4.08074428379e-05
9.21213289301e-05
-3.32139388327e-05
9.3338341181e-05
-3.30785848765e-05
9.64980689098e-05
-3.57121735039e-05
9.92910200089e-05
-3.68270084487e-05
9.99660014105e-05
-3.35026459643e-05
9.78747664878e-05
-2.51521798951e-05
9.34559286365e-05
-1.28236082338e-05
8.77693371407e-05
1.35537202725e-06
8.19574560499e-05
1.52287444619e-05
7.68834993903e-05
2.7176227258e-05
7.2856815253e-05
3.6377709303e-05
6.96242471247e-05
4.3108170608e-05
6.69727541845e-05
4.76922427906e-05
6.47782856384e-05
5.00775541951e-05
6.29935540444e-05
5.02787494083e-05
6.16954530956e-05
4.8408587431e-05
6.10303607036e-05
4.47199232518e-05
6.11818175432e-05
3.98675616357e-05
6.22520539213e-05
3.54734423717e-05
6.41142982276e-05
3.34329349271e-05
6.65177484813e-05
3.42084737133e-05
6.85781724158e-05
3.72449267786e-05
6.77342827051e-05
4.07475681422e-05
5.97278741822e-05
4.23075816964e-05
4.02629521288e-05
3.86279885353e-05
2.06425634857e-05
2.64960500861e-05
6.19163418745e-06
1.50623315247e-05
7.85504045665e-07
5.48430672646e-06
6.19533822643e-07
2.31492863002e-07
6.47536351791e-07
2.47035623683e-07
5.81462112258e-07
5.96860123206e-07
3.62188196439e-07
1.0438105746e-06
5.471777907e-08
1.30231451434e-06
-3.15138724639e-07
1.39958362349e-06
-6.49696971664e-07
1.30419316939e-06
-8.793234736e-07
1.00273826564e-06
-9.85509428426e-07
5.60467825855e-07
-9.87200522634e-07
9.24904690888e-08
-8.67954051072e-07
-3.42535760385e-07
-6.25158765124e-07
-7.28435554583e-07
-3.1623935561e-07
-1.0359272184e-06
-1.23090463579e-06
8.16059915798e-07
-3.71189735498e-06
1.7035658098e-06
-5.95333277521e-06
1.07844392676e-06
-3.38701466623e-06
1.3258832723e-06
-2.10727504904e-06
2.45195151152e-06
-4.21373940859e-06
2.31496758727e-06
-4.6690970918e-06
2.80199486368e-06
-5.72685204463e-06
2.42497828645e-06
-4.35812787259e-06
2.57486708122e-06
-2.73918281517e-06
2.41276327783e-06
-2.19858939211e-06
2.71978539948e-06
-1.07821566894e-06
3.07632731552e-06
-1.02699762638e-06
3.49040845298e-06
-1.00363848472e-06
4.30096479833e-06
-1.94984726327e-06
4.71293152863e-06
-2.94672255137e-06
4.37372480678e-06
-1.50641566984e-06
4.81438565949e-06
-1.18470906443e-06
5.46177616982e-06
-2.01665351831e-06
6.02669286084e-06
-3.16131998921e-06
6.39166951253e-06
-3.4684316991e-06
6.32208655679e-06
-2.86049296398e-06
6.31128745771e-06
-2.36985596247e-06
6.04041006127e-06
-1.86507250839e-06
5.64212080985e-06
-1.13878821817e-06
6.01492349592e-06
-9.87307803613e-07
5.79376793563e-06
-6.30158666084e-08
4.94230280219e-06
4.22903181101e-07
4.80252285418e-06
3.1965506109e-07
4.89407736234e-06
1.37030173059e-07
5.76012377971e-06
-4.99346778926e-07
6.28531678319e-06
-3.17532088152e-07
7.21004926888e-06
-9.60837289685e-07
6.35517330071e-05
-6.29398500214e-05
0.000119403498305
-0.000127500569795
0.00012070416179
-0.000110510449356
0.000107289583492
-7.36080637566e-05
9.62708802499e-05
-4.84157828568e-05
9.06889058798e-05
-3.51410183726e-05
9.01300668039e-05
-3.25679673612e-05
9.26229931621e-05
-3.54778022652e-05
9.5836753864e-05
-3.88212689794e-05
9.78123908229e-05
-3.86846626686e-05
9.76450651581e-05
-3.32075897896e-05
9.54853551527e-05
-2.28476167836e-05
9.22025954567e-05
-9.38805164009e-06
8.87874341468e-05
4.93102156658e-06
8.59357507213e-05
1.82360653145e-05
8.39427625768e-05
2.931823574e-05
8.26735245465e-05
3.77788104012e-05
8.15861514261e-05
4.43000930642e-05
8.02580471242e-05
4.91048729736e-05
7.8467850346e-05
5.19371333075e-05
7.61750866622e-05
5.26291818877e-05
7.35525214457e-05
5.10812535369e-05
7.10298580698e-05
4.72883517172e-05
6.943023001e-05
4.15109457347e-05
6.93629418742e-05
3.55833079833e-05
7.03966141659e-05
3.24358395828e-05
7.2100383554e-05
3.25249028951e-05
7.41228650105e-05
3.52169248335e-05
7.56314693506e-05
3.92044762021e-05
7.47794604035e-05
4.31116738697e-05
6.7875378013e-05
4.5479322631e-05
4.98577106158e-05
4.44626640351e-05
2.7256135096e-05
3.76215929442e-05
1.02992426899e-05
2.24501290263e-05
1.61824784732e-06
8.90898904376e-06
9.79923617895e-07
8.80672647548e-07
9.25083103855e-07
6.57322905055e-07
5.87686323008e-07
1.39012392276e-06
1.11891300969e-07
1.79438593162e-06
-4.19838810308e-07
1.95504266909e-06
-8.72828140936e-07
1.78605604292e-06
-1.18017203292e-06
1.34455149924e-06
-1.33699564499e-06
7.52915024592e-07
-1.33582473867e-06
1.32577537201e-07
-1.16781147433e-06
-4.77217572189e-07
-8.39817089959e-07
-1.01818518245e-06
-4.19701261131e-07
-1.42614179248e-06
-1.63638286826e-06
9.21565615845e-07
-4.61738415596e-06
1.43713933594e-06
-6.45474878019e-06
1.13718175713e-06
-3.07868406396e-06
1.88930720213e-06
-2.84740242001e-06