/*--------------------------------*- C++ -*----------------------------------*\
| =========                 |                                                 |
| \\      /  F ield         | OpenFOAM: The Open Source CFD Toolbox           |
|  \\    /   O peration     | Version:  v1806                                 |
|   \\  /    A nd           | Web:      www.OpenFOAM.com                      |
|    \\/     M anipulation  |                                                 |
\*---------------------------------------------------------------------------*/
FoamFile
{
    version     2.0;
    format      ascii;
    class       surfaceScalarField;
    location    "569";
    object      phi;
}
// * * * * * * * * * * * * * * * * * * * * * * * * * * * * * * * * * * * * * //

dimensions      [0 3 -1 0 0 0 0];
oriented        oriented;


internalField   nonuniform List<scalar> 
12640
(
-2.25171463654e-07
2.25559017088e-07
-4.26869481041e-07
2.02009346153e-07
-6.00333571638e-07
1.7369369435e-07
-7.44159715508e-07
1.44003303301e-07
-8.48831709069e-07
1.04828815036e-07
-9.13484904655e-07
6.48272123843e-08
-9.58279302326e-07
4.49619540128e-08
-1.02703370051e-06
6.89050063539e-08
-1.12113191002e-06
9.42331208527e-08
-1.20874301883e-06
8.77253102804e-08
-1.28849284685e-06
7.98387184716e-08
-1.37056633386e-06
8.21514916648e-08
-1.44301915622e-06
7.25216852098e-08
-1.50129476733e-06
5.83402400844e-08
-1.5534111838e-06
5.21788996268e-08
-1.61286773501e-06
5.95240345879e-08
-1.67391807043e-06
6.11147946388e-08
-1.72394799071e-06
5.00923010351e-08
-1.76136962644e-06
3.74698673687e-08
-1.79497645465e-06
3.36466216627e-08
-1.84165262308e-06
4.67092238703e-08
-1.90250963481e-06
6.08892652945e-08
-1.96553836767e-06
6.30573372481e-08
-2.02472075007e-06
5.92113592491e-08
-2.07797555021e-06
5.32806459137e-08
-2.12538116715e-06
4.7432458777e-08
-2.16930220527e-06
4.39453497045e-08
-2.20857138426e-06
3.92951731202e-08
-2.24200097466e-06
3.34525131877e-08
-2.27083649975e-06
2.88599351181e-08
-2.29821460734e-06
2.73985637812e-08
-2.32296978113e-06
2.47776210832e-08
-2.3429766895e-06
2.00282468452e-08
-2.36267949492e-06
1.9723828978e-08
-2.38226916578e-06
1.96048484701e-08
-2.40048304915e-06
1.82302595589e-08
-2.41933972686e-06
1.88672358069e-08
-2.4366171924e-06
1.72848956507e-08
-2.44952858592e-06
1.29134751138e-08
-2.4592707727e-06
9.74516831572e-09
-2.47109246377e-06
1.18212647532e-08
-2.4801422737e-06
9.05036668297e-09
-2.47693854324e-06
-3.20712962812e-09
-2.46489092095e-06
-1.20522167357e-08
-2.44802763517e-06
-1.68730949235e-08
-2.42552197956e-06
-2.2516037121e-08
-2.39670824058e-06
-2.88294903857e-08
-2.36008761592e-06
-3.66372055419e-08
-2.31557782637e-06
-4.45316397466e-08
-2.26785453494e-06
-4.7745390167e-08
-2.22218270398e-06
-4.5701495216e-08
-2.17059097799e-06
-5.16208161021e-08
-2.09558954787e-06
-7.50343609898e-08
-2.00186146835e-06
-9.37622562658e-08
-1.89149406609e-06
-1.10406110892e-07
-1.75829965277e-06
-1.33234590446e-07
-1.62016141788e-06
-1.38192018942e-07
-1.48243682733e-06
-1.37794153829e-07
-1.32430447165e-06
-1.58219468221e-07
-1.14477971989e-06
-1.79639521936e-07
-9.55308815136e-07
-1.89614808804e-07
-7.33306828304e-07
-2.22169551412e-07
-4.085352958e-07
-3.24949863874e-07
-1.16411654275e-07
-2.92238833886e-07
6.46497631304e-08
-1.81132200665e-07
1.79716966117e-07
-1.15110544458e-07
2.64007947294e-07
-8.43320340058e-08
3.32961865935e-07
-6.89964475156e-08
3.86847205087e-07
-5.39330937344e-08
4.21475911344e-07
-3.46785687706e-08
4.33311649573e-07
-1.18879563881e-08
4.22253967892e-07
1.1005517004e-08
3.91171726369e-07
3.10354299114e-08
3.38595745431e-07
5.25318475227e-08
2.82253446116e-07
5.62993858689e-08
2.25814404102e-07
5.63970766237e-08
1.82307657408e-07
4.34597498476e-08
1.29298481463e-07
5.29695872074e-08
7.90109288153e-08
5.02186134347e-08
7.89723883781e-08
-1.17347835512e-07
3.43092446891e-07
-2.71973314341e-07
3.56843995505e-07
-4.20032013873e-07
3.21918155477e-07
-5.71891315645e-07
2.95996255987e-07
-7.59667434491e-07
2.92763664991e-07
-9.01088316528e-07
2.06401200345e-07
-9.81427744615e-07
1.25465241812e-07
-1.05626753042e-06
1.43893915551e-07
-1.13810767694e-06
1.76208025138e-07
-1.22654777173e-06
1.76270356505e-07
-1.3102830006e-06
1.63669226225e-07
-1.37948913057e-06
1.51430856237e-07
-1.44112014944e-06
1.34228655371e-07
-1.49906763404e-06
1.16358862648e-07
-1.55442625133e-06
1.07619627678e-07
-1.61595619724e-06
1.2112492449e-07
-1.67202638166e-06
1.17256551674e-07
-1.70096289012e-06
7.90767771361e-08
-1.72501418342e-06
6.15661038316e-08
-1.76612793932e-06
7.47907838767e-08
-1.82534964676e-06
1.05965886966e-07
-1.89935151258e-06
1.34916819559e-07
-1.96989064766e-06
1.33630889369e-07
-2.02517251017e-06
1.14517187113e-07
-2.075214483e-06
1.03354326556e-07
-2.12634535678e-06
9.85851880322e-08
-2.17102533203e-06
8.86558578689e-08
-2.20852111293e-06
7.68114845301e-08
-2.24164895616e-06
6.66094821349e-08
-2.27112182282e-06
5.83516985056e-08
-2.29637809178e-06
5.26827862835e-08
-2.31814208074e-06
4.65611455147e-08
-2.33531490629e-06
3.72269887272e-08
-2.35312551176e-06
3.75502209353e-08
-2.37623094833e-06
4.2733682048e-08
-2.39543309828e-06
3.74407953747e-08
-2.4127203961e-06
3.61682760494e-08
-2.43435105288e-06
3.89174926478e-08
-2.4566930472e-06
3.52640851846e-08
-2.47008465819e-06
2.31344526156e-08
-2.4564787302e-06
-1.77791665831e-09
-2.42761696704e-06
-1.98152745261e-08
-2.41094209564e-06
-1.98797396361e-08
-2.40308393619e-06
-1.9920429811e-08
-2.39437967492e-06
-2.55819845041e-08
-2.38279742549e-06
-3.41144704382e-08
-2.3652612165e-06
-4.63762492913e-08
-2.34143850307e-06
-6.04815325238e-08
-2.30959670907e-06
-7.63901510445e-08
-2.26156937466e-06
-9.58000915235e-08
-2.19117046095e-06
-1.1612278157e-07
-2.11424444296e-06
-1.28579126853e-07
-2.05879385704e-06
-1.30514694085e-07
-1.99302314565e-06
-1.59572749188e-07
-1.89569829419e-06
-2.07769963467e-07
-1.7926160757e-06
-2.36368176333e-07
-1.6769862702e-06
-2.53880051826e-07
-1.53674683512e-06
-2.78109392538e-07
-1.38158356122e-06
-3.13478246706e-07
-1.20179278939e-06
-3.59553369586e-07
-9.64864512006e-07
-4.26669555616e-07
-7.00321177871e-07
-4.86859808121e-07
-3.98273226642e-07
-6.27151033003e-07
-1.26784019503e-07
-5.63844075042e-07
5.67016492979e-08
-3.64674579307e-07
1.74228879846e-07
-2.32682192357e-07
2.64997949876e-07
-1.75136769329e-07
3.42618409406e-07
-1.46659675643e-07
4.0102775742e-07
-1.12387689156e-07
4.34694043518e-07
-6.83982264039e-08
4.38851323638e-07
-1.60997656137e-08
4.17346887777e-07
3.24577165196e-08
3.86154298143e-07
6.21782732549e-08
3.54299879911e-07
8.43323023841e-08
3.11601344605e-07
9.89485067845e-08
2.64746829498e-07
1.03198291804e-07
2.09638985548e-07
9.85207173635e-08
1.56249107152e-07
1.063031751e-07
8.2752316293e-08
1.23666934595e-07
1.61690466144e-07
-1.52267160591e-07
4.95552383165e-07
-2.29437157552e-07
4.34183858764e-07
-4.0920259684e-07
5.01845860793e-07
-6.15116668966e-07
5.02075985571e-07
-8.01285390611e-07
4.7908555468e-07
-8.9682938828e-07
3.02070678283e-07
-9.43872738112e-07
1.72628632737e-07
-1.02670665051e-06
2.26851067101e-07
-1.12337592011e-06
2.72988009855e-07
-1.21760201406e-06
2.70594241286e-07
-1.30445395407e-06
2.5060242538e-07
-1.37740104301e-06
2.24461399423e-07
-1.43956856594e-06
1.96483299248e-07
-1.49893779027e-06
1.75817834194e-07
-1.54375261607e-06
1.52518768214e-07
-1.5298257619e-06
1.07270819101e-07
-1.48357361616e-06
7.10528994833e-08
-1.48809103653e-06
8.36329425113e-08
-1.56054940881e-06
1.34054673529e-07
-1.69205185082e-06
2.06324334489e-07
-1.82448440327e-06
2.38429852917e-07
-1.90529123207e-06
2.15757948732e-07
-1.96249620677e-06
1.90865001765e-07
-2.02360608312e-06
1.75657828438e-07
-2.08049439313e-06
1.60269116403e-07
-2.12699954519e-06
1.45118729631e-07
-2.16794675273e-06
1.29627354357e-07
-2.20537425732e-06
1.14265989043e-07
-2.23831174747e-06
9.95702412898e-08
-2.26781982612e-06
8.78864495076e-08
-2.29114557547e-06
7.60321862634e-08
-2.3111813218e-06
6.66210646429e-08
-2.33168255349e-06
5.77512318803e-08
-2.34110434549e-06
4.69944823413e-08
-2.35569579311e-06
5.73383029787e-08
-2.38688539809e-06
6.86441867675e-08
-2.40780853938e-06
5.70994092338e-08
-2.42412493792e-06
5.52412988788e-08
-2.45014436238e-06
6.12864201416e-08
-2.4717060398e-06
4.47023086734e-08
-2.48406265165e-06
1.05808433969e-08
-2.48796795545e-06
-1.5907264212e-08
-2.48179095867e-06
-2.60601558121e-08
-2.46935024469e-06
-3.23642503724e-08
-2.45249673865e-06
-4.24442079277e-08
-2.43025724176e-06
-5.63624381795e-08
-2.40283992906e-06
-7.38076479165e-08
-2.36949345301e-06
-9.3842171576e-08
-2.32943283794e-06
-1.164702707e-07
-2.28334867601e-06
-1.41903550938e-07
-2.23183594971e-06
-1.67660398981e-07
-2.16984206489e-06
-1.90599354106e-07
-2.08415248612e-06
-2.16236132777e-07
-1.98646298023e-06
-2.57296097619e-07
-1.89382570799e-06
-3.00448919721e-07
-1.79223024182e-06
-3.38013216966e-07
-1.66715988779e-06
-3.79009882911e-07
-1.51881083902e-06
-4.26533353121e-07
-1.34876237247e-06
-4.83615222962e-07
-1.15283864574e-06
-5.55576684915e-07
-9.3470152303e-07
-6.44920261743e-07
-6.60774585703e-07
-7.60908191167e-07
-3.89212223099e-07
-8.98823967057e-07
-1.40574940624e-07
-8.12561923293e-07
5.51173277222e-08
-5.60423465869e-07
1.91721685e-07
-3.69324244712e-07
2.93813436285e-07
-2.77265550367e-07
3.65089818601e-07
-2.1797266793e-07
4.12213983879e-07
-1.59555403558e-07
4.35822982464e-07
-9.20577897809e-08
4.41293622587e-07
-2.16239129307e-08
4.38449143789e-07
3.52496916041e-08
4.21164813497e-07
7.9408357053e-08
3.81823692298e-07
1.23624788927e-07
3.2276929345e-07
1.57949693645e-07
2.57926574085e-07
1.68002439627e-07
1.99333476602e-07
1.5706952333e-07
1.51556413612e-07
1.54051412877e-07
6.60976722478e-08
2.09082677695e-07
2.27783361933e-07
-1.09142244252e-07
6.04821388715e-07
-1.45707053524e-07
4.7085956078e-07
-3.51528090688e-07
7.07822693816e-07
-5.18244749366e-07
6.68956336423e-07
-5.28494974125e-07
4.89453402843e-07
-4.66573055807e-07
2.40204370517e-07
-6.40499822949e-07
3.46618199544e-07
-9.07945977119e-07
4.94386661424e-07
-1.07966171156e-06
4.4479868168e-07
-1.19519640934e-06
3.86215320318e-07
-1.29389168337e-06
3.49387526173e-07
-1.37642132351e-06
3.07085046193e-07
-1.43252948254e-06
2.52686229865e-07
-1.42846816369e-06
1.71846325739e-07
-1.37763527251e-06
1.01758179911e-07
-1.35807874662e-06
8.77635817834e-08
-1.41193631706e-06
1.24947839765e-07
-1.53360444336e-06
2.05332376222e-07
-1.68194600323e-06
2.82430135165e-07
-1.78436016216e-06
3.08774507124e-07
-1.84345811733e-06
2.97564183257e-07
-1.90596712534e-06
2.78299592467e-07
-1.97014234703e-06
2.55072548879e-07
-2.02612415239e-06
2.31668761111e-07
-2.0759846959e-06
2.10159223554e-07
-2.12082134696e-06
1.89981815415e-07
-2.16277705374e-06
1.71610798103e-07
-2.20041530699e-06
1.51928595109e-07
-2.23417815328e-06
1.3335962302e-07
-2.26129831732e-06
1.15032075592e-07
-2.28666132768e-06
1.01421596088e-07
-2.30322025606e-06
8.32056736776e-08
-2.31213825668e-06
6.66910306128e-08
-2.33960686343e-06
7.44799977527e-08
-2.36345055209e-06
8.11978262602e-08
-2.38432341734e-06
8.9527193143e-08
-2.42501516057e-06
9.78002289431e-08
-2.45912948402e-06
8.93626156299e-08
-2.47232037289e-06
7.44857725171e-08
-2.47818160486e-06
5.05686903177e-08
-2.48521226631e-06
1.76158696542e-08
-2.48968124406e-06
-1.14377038806e-08
-2.4860097888e-06
-2.97310964188e-08
-2.47481489392e-06
-4.35620045198e-08
-2.45794488839e-06
-5.93175880495e-08
-2.43568069152e-06
-7.86338511835e-08
-2.40803145829e-06
-1.01465234378e-07
-2.37450674698e-06
-1.27379442401e-07
-2.3346216425e-06
-1.56369270149e-07
-2.28821065222e-06
-1.88332496123e-07
-2.23380946953e-06
-2.2208081046e-07
-2.16715291671e-06
-2.57278800319e-07
-2.08554192174e-06
-2.97872615679e-07
-1.99557998809e-06
-3.47289963199e-07
-1.89666339157e-06
-3.99404363869e-07
-1.78135950604e-06
-4.53362598975e-07
-1.64526870296e-06
-5.15158509753e-07
-1.48471343403e-06
-5.87151729004e-07
-1.29622137753e-06
-6.72182317555e-07
-1.07757397479e-06
-7.74302561034e-07
-8.29703860802e-07
-8.92865702055e-07
-5.72872192593e-07
-1.0178177667e-06
-3.81374110379e-07
-1.09040925878e-06
-1.5878113612e-07
-1.03523053668e-06
7.14336278038e-08
-7.90689927905e-07
2.18923987662e-07
-5.16851720131e-07
3.22703803673e-07
-3.81073374066e-07
4.02306318096e-07
-2.97609816427e-07
4.58788359215e-07
-2.16080795561e-07
4.94056012432e-07
-1.27376187261e-07
5.06738757398e-07
-3.43592193464e-08
4.87764352515e-07
5.41734430243e-08
4.3161580804e-07
1.35514431269e-07
3.59151603538e-07
1.96045998981e-07
2.87844967577e-07
2.29227140107e-07
2.12218271085e-07
2.4358947262e-07
1.42381485404e-07
2.26887788392e-07
9.49737470309e-08
2.01440859355e-07
4.84250087532e-08
2.55624542e-07
2.76195954086e-07
-2.19736918895e-08
6.26888490762e-07
-1.29950981677e-07
5.78924430006e-07
-2.97217406181e-07
8.752244089e-07
-4.17658285225e-07
7.89529020181e-07
-3.95128723931e-07
4.67001882143e-07
-4.90122713751e-07
3.35242011643e-07
-7.11751281578e-07
5.68308928155e-07
-8.82328164848e-07
6.65046636054e-07
-1.02349113428e-06
5.86044202958e-07
-1.15092565814e-06
5.13738234446e-07
-1.26609728232e-06
4.64658138099e-07
-1.32613634281e-06
3.67216611156e-07
-1.30240096456e-06
2.29035181474e-07
-1.2739010343e-06
1.43410590083e-07
-1.31328361161e-06
1.4118712837e-07
-1.41243181617e-06
1.86950560313e-07
-1.54785504282e-06
2.60407036006e-07
-1.66713527571e-06
3.24649735538e-07
-1.73360777194e-06
3.48941450289e-07
-1.77963547664e-06
3.54841083497e-07
-1.84058688199e-06
3.58552625201e-07
-1.90627820908e-06
3.44026115836e-07
-1.9670514541e-06
3.15878199462e-07
-2.02105688075e-06
2.85705872114e-07
-2.06951942889e-06
2.58650938782e-07
-2.11533714542e-06
2.35829018281e-07
-2.15525819824e-06
2.11557055087e-07
-2.19356000373e-06
1.90257444491e-07
-2.22460393884e-06
1.6443122532e-07
-2.25172221275e-06
1.42178785139e-07
-2.26740019232e-06
1.17126137777e-07
-2.28933275003e-06
1.05160900701e-07
-2.32610465394e-06
1.03482095726e-07
-2.34630836232e-06
9.46991249079e-08
-2.37589566924e-06
1.10796670483e-07
-2.41667914708e-06
1.30321894222e-07
-2.44561193468e-06
1.26743505284e-07
-2.46550661839e-06
1.09268207919e-07
-2.47716348173e-06
8.61514438013e-08
-2.48421433708e-06
5.76272271211e-08
-2.49077708403e-06
2.41835669231e-08
-2.49479207923e-06
-7.41880966247e-09
-2.49208610142e-06
-3.2435403252e-08
-2.48196083434e-06
-5.36861986733e-08
-2.4655446593e-06
-7.57348433359e-08
-2.44344942292e-06
-1.00731340744e-07
-2.41573866196e-06
-1.29181123085e-07
-2.3820385293e-06
-1.6108657675e-07
-2.34180931293e-06
-1.96608654526e-07
-2.29427733903e-06
-2.35876288864e-07
-2.23760803456e-06
-2.78764761216e-07
-2.16897970295e-06
-3.25924102134e-07
-2.0874322359e-06
-3.79441425062e-07
-1.99477578886e-06
-4.39973274247e-07
-1.88850739025e-06
-5.05704593689e-07
-1.76276352587e-06
-5.79148308597e-07
-1.61251332208e-06
-6.65450470715e-07
-1.4328448857e-06
-7.66872742131e-07
-1.22110026365e-06
-8.83976205948e-07
-9.81868983521e-07
-1.01358233754e-06
-7.32529162946e-07
-1.14225456094e-06
-5.11255846587e-07
-1.23914816208e-06
-3.49728355867e-07
-1.25199122675e-06
-1.22010472591e-07
-1.26300545051e-06
9.7400130389e-08
-1.0101496738e-06
2.60346781167e-07
-6.79827306164e-07
3.78791064647e-07
-4.99549474039e-07
4.65224161211e-07
-3.84076067679e-07
5.26107711146e-07
-2.77002705828e-07
5.65578215783e-07
-1.66889446241e-07
5.65916415515e-07
-3.47401578022e-08
5.09723384804e-07
1.10330876427e-07
4.27339199374e-07
2.17866887452e-07
3.42489047345e-07
2.80872105532e-07
2.5581768598e-07
3.15864817172e-07
1.73869106738e-07
3.25528377489e-07
1.21088052809e-07
2.79653826669e-07
7.49447411552e-08
2.47575186542e-07
3.04014195737e-08
3.00147971448e-07
3.06593668698e-07
-1.0929155797e-08
6.37861928021e-07
-1.59498972643e-07
7.27570750167e-07
-2.52836738692e-07
9.68673845583e-07
-3.10983504722e-07
8.47764499109e-07
-3.05882798945e-07
4.61947331561e-07
-5.35460056032e-07
5.64871124412e-07
-7.5525021328e-07
7.88171581108e-07
-8.60627865265e-07
7.70496980604e-07
-9.78444310665e-07
7.0394283974e-07
-1.08822137806e-06
6.23612760421e-07
-1.14336259247e-06
5.19890750752e-07
-1.09945704841e-06
3.23387499333e-07
-1.09270918411e-06
2.22340584856e-07
-1.16771588623e-06
2.18457187003e-07
-1.29281518563e-06
2.66321099622e-07
-1.45545856116e-06
3.49628696419e-07
-1.594495413e-06
3.99482853399e-07
-1.66408316039e-06
3.94280292669e-07
-1.70841034244e-06
3.9331076096e-07
-1.77465132838e-06
4.21122985609e-07
-1.84261798661e-06
4.26558215411e-07
-1.90239328049e-06
4.03837720044e-07
-1.9594014335e-06
3.72920664354e-07
-2.01501552804e-06
3.41351151519e-07
-2.06486591924e-06
3.08532271123e-07
-2.10124643204e-06
2.72237604903e-07
-2.14241034722e-06
2.52749846541e-07
-2.177776833e-06
2.25652173737e-07
-2.20969294399e-06
1.96374839662e-07
-2.22387660263e-06
1.56389584218e-07
-2.24159743043e-06
1.34872102011e-07
-2.267888449e-06
1.31472546938e-07
-2.29372638278e-06
1.2933560121e-07
-2.35040273463e-06
1.51388199525e-07
-2.40232990642e-06
1.62735890303e-07
-2.43454903541e-06
1.62553806683e-07
-2.45590090063e-06
1.48108757612e-07
-2.47176275374e-06
1.25142756032e-07
-2.48319252365e-06
9.75929025592e-08
-2.49151756012e-06
6.59616441981e-08
-2.49821828805e-06
3.08917228817e-08
-2.50191140151e-06
-3.72010135166e-09
-2.49971576307e-06
-3.46260767018e-08
-2.49052744023e-06
-6.28704725805e-08
-2.47481025209e-06
-9.14487283395e-08
-2.45308592574e-06
-1.22453933863e-07
-2.42544210209e-06
-1.56824700532e-07
-2.39150740864e-06
-1.95023164081e-07
-2.35060053846e-06
-2.37519313557e-07
-2.30166594346e-06
-2.84816953263e-07
-2.24297760994e-06
-3.37461107207e-07
-2.17251806921e-06
-3.963946134e-07
-2.08912622221e-06
-4.62848561393e-07
-1.99167070576e-06
-5.37448566514e-07
-1.87603254952e-06
-6.21370130533e-07
-1.73629862723e-06
-7.18908411262e-07
-1.56740404978e-06
-8.3437961142e-07
-1.36651840319e-06
-9.67785431738e-07
-1.13693919399e-06
-1.11358664424e-06
-8.92895193035e-07
-1.25765249375e-06
-6.59868949922e-07
-1.37531092449e-06
-4.62125112713e-07
-1.43692236079e-06
-2.85824249826e-07
-1.4283399774e-06
-8.26037148821e-08
-1.46628052985e-06
1.28828490558e-07
-1.22161583983e-06
2.93512158904e-07
-8.44542046323e-07
4.37758861193e-07
-6.43819826342e-07
5.51626265251e-07
-4.97974407516e-07
6.33064202382e-07
-3.58474260963e-07
6.69814236313e-07
-2.03674723334e-07
6.27480661077e-07
7.56217817885e-09
5.35765924061e-07
2.02021051637e-07
4.33490092147e-07
3.20121851347e-07
3.27603200171e-07
3.86734779612e-07
2.26387469797e-07
4.17074645722e-07
1.52463250292e-07
3.99434521948e-07
9.7833622315e-08
3.34274312566e-07
5.40805403273e-08
2.91316974689e-07
2.36212154728e-08
3.30599787348e-07
3.30205582412e-07
-6.13111355782e-08
6.99235021357e-07
-2.33260422803e-07
8.99596631954e-07
-3.14939752919e-07
1.05045026171e-06
-2.78280344534e-07
8.11179222612e-07
-3.68945912647e-07
5.52655646133e-07
-6.19256670046e-07
8.15242833808e-07
-7.42526599722e-07
9.11510397098e-07
-8.33708283461e-07
8.61755065325e-07
-9.17165539406e-07
7.87484189879e-07
-1.02837301219e-06
7.34908178419e-07
-1.01970105483e-06
5.11299090655e-07
-9.98130338795e-07
3.01867303335e-07
-1.07231816734e-06
2.96566606031e-07
-1.17872853352e-06
3.24896437403e-07
-1.33781848129e-06
4.25442514011e-07
-1.491120308e-06
5.02971875018e-07
-1.56778991781e-06
4.76197210304e-07
-1.61502770865e-06
4.4156078924e-07
-1.69402021079e-06
4.72345419046e-07
-1.77217470441e-06
4.99319512363e-07
-1.83605317595e-06
4.90476860032e-07
-1.89612074364e-06
4.63943462541e-07
-1.95437030876e-06
4.31203696295e-07
-2.0039247056e-06
3.9093866181e-07
-2.04433147307e-06
3.48971003122e-07
-2.0842199479e-06
3.12155177868e-07
-2.11472479586e-06
2.83283063051e-07
-2.1512904933e-06
2.62244883265e-07
-2.17526366095e-06
2.20375559632e-07
-2.191582266e-06
1.72733829894e-07
-2.22297716735e-06
1.6628873084e-07
-2.26106402365e-06
1.69577849101e-07
-2.31387238599e-06
1.82158123502e-07
-2.36573227689e-06
2.03261177872e-07
-2.41525522882e-06
2.12273436842e-07
-2.44483340318e-06
1.92147598935e-07
-2.46373886351e-06
1.67029644738e-07
-2.47872616448e-06
1.40144882995e-07
-2.49091601119e-06
1.09796047707e-07
-2.50038297977e-06
7.54403657362e-08
-2.50744467813e-06
3.79635209489e-08
-2.51108235529e-06
-7.31866106425e-11
-2.50927322597e-06
-3.64266672354e-08
-2.50088140956e-06
-7.12540280184e-08
-2.48592395693e-06
-1.06398581408e-07
-2.4646846227e-06
-1.43686332407e-07
-2.43714850869e-06
-1.84354996812e-07
-2.4028844874e-06
-2.2928257804e-07
-2.36112998894e-06
-2.79270850049e-07
-2.31076795872e-06
-3.35177755159e-07
-2.25021765166e-06
-3.98012824065e-07
-2.17758742184e-06
-4.69029735726e-07
-2.09078355245e-06
-5.49662226401e-07
-1.98654022919e-06
-6.41707376924e-07
-1.8594372627e-06
-7.48489351046e-07
-1.70359577936e-06
-8.74771694772e-07
-1.51556646799e-06
-1.02242119732e-06
-1.29722188664e-06
-1.18615005393e-06
-1.05947567661e-06
-1.35134577747e-06
-8.21590176255e-07
-1.49555685709e-06
-6.0878412058e-07
-1.58813509987e-06
-4.30827767706e-07
-1.61491538978e-06
-2.43485263946e-07
-1.61572415911e-06
-9.97486639356e-08
-1.61005328249e-06
1.49858476625e-07
-1.4712577787e-06
3.54789243018e-07
-1.04949065829e-06
5.40986734382e-07
-8.30045941022e-07
6.9870498091e-07
-6.55719320056e-07
7.93493867237e-07
-4.53291884468e-07
7.9156604996e-07
-2.01772533464e-07
7.02643513761e-07
9.6465561771e-08
5.83075117755e-07
3.2157124259e-07
4.47396790483e-07
4.55783694864e-07
3.11283622088e-07
5.2283848829e-07
1.96821649948e-07
5.31519278927e-07
1.27961527864e-07
4.68287947324e-07
6.8179909328e-08
3.94047084083e-07
2.61849830632e-08
3.33298950565e-07
1.27429885091e-08
3.44024257188e-07
3.42938802276e-07
-1.09768732051e-07
8.09046639493e-07
-2.58000932745e-07
1.04790469761e-06
-2.97640523934e-07
1.09015450311e-06
-2.17540556015e-07
7.31120214992e-07
-4.11437667385e-07
7.46599825856e-07
-6.15756803675e-07
1.01962712174e-06
-7.10773819389e-07
1.00659995247e-06
-8.08995714745e-07
9.60054493202e-07
-8.39765730728e-07
8.18336153868e-07
-8.80190621072e-07
7.75407886863e-07
-8.60891280387e-07
4.92048223462e-07
-9.64280696438e-07
4.05292578471e-07
-1.06225512199e-06
3.9456799789e-07
-1.20787378332e-06
4.70544773703e-07
-1.37035623249e-06
5.87963441784e-07
-1.45850340462e-06
5.91162506038e-07
-1.50714110976e-06
5.24878941364e-07
-1.59492085695e-06
5.29383763335e-07
-1.68909871351e-06
5.66566884559e-07
-1.76061610565e-06
5.70880259985e-07
-1.82132561355e-06
5.51227588948e-07
-1.87996376046e-06
5.22617396057e-07
-1.94163722517e-06
4.92913240723e-07
-1.99996867596e-06
4.49305591589e-07
-2.03532511898e-06
3.84357102144e-07
-2.07829939605e-06
3.55160279344e-07
-2.11111367688e-06
3.16125866483e-07
-2.12230533866e-06
2.73463911036e-07
-2.14557001266e-06
2.43665040725e-07
-2.20774260857e-06
2.34929018467e-07
-2.25072106084e-06
2.09288063814e-07
-2.27271197335e-06
1.91584217301e-07
-2.32752386034e-06
2.36984825775e-07
-2.38943631228e-06
2.65189199725e-07
-2.42510984325e-06
2.47963819379e-07
-2.4507856647e-06
2.17840910922e-07
-2.47075376422e-06
1.8701516904e-07
-2.48688274584e-06
1.5629059277e-07
-2.50018051789e-06
1.23109553013e-07
-2.51074631865e-06
8.60205861888e-08
-2.51837802542e-06
4.56085609978e-08
-2.52223132166e-06
3.79274501387e-09
-2.52088331754e-06
-3.77621423091e-08
-2.51327441294e-06
-7.88504048358e-08
-2.49910807068e-06
-1.20552327721e-07
-2.47839828285e-06
-1.64383670104e-07
-2.45097070657e-06
-2.11770461311e-07
-2.416320436e-06
-2.63921470133e-07
-2.37367153213e-06
-3.21909517934e-07
-2.32194605598e-06
-3.86895053716e-07
-2.25960525158e-06
-4.60348582869e-07
-2.18446765748e-06
-5.44166731293e-07
-2.09331082559e-06
-6.40824404782e-07
-1.98123275032e-06
-7.53793638343e-07
-1.8420344954e-06
-8.87701432503e-07
-1.67074835551e-06
-1.04605883652e-06
-1.46697194439e-06
-1.22621062162e-06
-1.235931609e-06
-1.41719241989e-06
-9.90707242685e-07
-1.59658883694e-06
-7.51658385507e-07
-1.73462252328e-06
-5.43460420599e-07
-1.79636353726e-06
-3.71803818201e-07
-1.78660011769e-06
-2.27691773981e-07
-1.75987195222e-06
-1.07532085638e-07
-1.73025464118e-06
1.16689072414e-07
-1.69551053822e-06
4.28669057621e-07
-1.36150337203e-06
6.66117107196e-07
-1.06751086479e-06
8.59982447565e-07
-8.49606276843e-07
9.58447821962e-07
-5.51779181931e-07
9.28480481042e-07
-1.71824537371e-07
8.11885377961e-07
2.1303941501e-07
6.48217158909e-07
4.85224287616e-07
4.6036585951e-07
6.43618634595e-07
2.85248889252e-07
6.97941316051e-07
1.58315451483e-07
6.58441743069e-07
7.71926942215e-08
5.49402401178e-07
2.17788568193e-08
4.49444701233e-07
-1.34759562454e-08
3.68544901734e-07
-1.12423498213e-08
3.41779879566e-07
3.31712507812e-07
-1.40539661236e-07
9.4965774749e-07
-2.51837259667e-07
1.15927503434e-06
-2.46489989111e-07
1.08487268114e-06
-2.69682488137e-07
7.54353113785e-07
-4.83211134767e-07
9.60181571803e-07
-5.79456355624e-07
1.11594147507e-06
-6.68673818866e-07
1.09589385109e-06
-7.63319210745e-07
1.05477335136e-06
-8.02766577417e-07
8.5784818459e-07
-8.44343706832e-07
8.17049984337e-07
-8.71246581632e-07
5.18985148688e-07
-9.63646552157e-07
4.97718578027e-07
-1.07884031975e-06
5.09786160472e-07
-1.2400759578e-06
6.31810871406e-07
-1.37699967529e-06
7.24930562654e-07
-1.43758509371e-06
6.51795832336e-07
-1.49581946764e-06
5.83156778706e-07
-1.58603780429e-06
6.1964514498e-07
-1.67280868672e-06
6.53382096362e-07
-1.74583524139e-06
6.43949050126e-07
-1.80886456758e-06
6.14294160971e-07
-1.86151873215e-06
5.75309961998e-07
-1.90834266437e-06
5.39776801264e-07
-1.9576352858e-06
4.98631349899e-07
-2.00126548913e-06
4.28020804206e-07
-2.03269198821e-06
3.8661698041e-07
-2.07825093893e-06
3.61711215944e-07
-2.12717038042e-06
3.22410716682e-07
-2.16905221361e-06
2.85571987438e-07
-2.20326690164e-06
2.6916488274e-07
-2.24669770249e-06
2.52734750933e-07
-2.32073804481e-06
2.65639476638e-07
-2.36802291613e-06
2.84284767842e-07
-2.40136549287e-06
2.98548960484e-07
-2.43128956255e-06
2.77907074128e-07
-2.45712230942e-06
2.43693380318e-07
-2.47866283142e-06
2.0857498963e-07
-2.49626790801e-06
1.73914335841e-07
-2.51073637359e-06
1.37595875489e-07
-2.52240107231e-06
9.77024754507e-08
-2.53089897991e-06
5.41231898028e-08
-2.53534544541e-06
8.25592762737e-09
-2.53464102485e-06
-3.84496451909e-08
-2.52788849052e-06
-8.55854500383e-08
-2.51458305698e-06
-1.33839701013e-07
-2.4944415191e-06
-1.84506563456e-07
-2.46712527907e-06
-2.39067799719e-07
-2.43209405282e-06
-2.98934021517e-07
-2.38860979559e-06
-3.65376175287e-07
-2.33567547462e-06
-4.39814607191e-07
-2.27174800177e-06
-5.2426503071e-07
-2.19424305461e-06
-6.2166851314e-07
-2.09892036314e-06
-7.36148230624e-07
-1.97973315801e-06
-8.72991678119e-07
-1.83025301274e-06
-1.03717790464e-06
-1.6468170864e-06
-1.22950497223e-06
-1.43073992984e-06
-1.44228476654e-06
-1.18391501794e-06
-1.66403835874e-06
-9.20032318817e-07
-1.86048962697e-06
-6.67373832806e-07
-1.98731137115e-06
-4.62370543321e-07
-2.00138995506e-06
-3.15289429773e-07
-1.93371598287e-06
-1.96197739274e-07
-1.87900490832e-06
-6.44883889386e-08
-1.86200889389e-06
8.79293749497e-08
-1.84797986584e-06
4.34474943656e-07
-1.7080786781e-06
8.30495262787e-07
-1.46356126723e-06
1.0776294369e-06
-1.09676309948e-06
1.19061970971e-06
-6.64790624245e-07
1.13433823977e-06
-1.15567308481e-07
9.69956490821e-07
3.77403156374e-07
7.2904356942e-07
7.26114276795e-07
4.63630361958e-07
9.0901837161e-07
2.35594060861e-07
9.25959270173e-07
8.15480142682e-08
8.12485343849e-07
-1.52047028081e-08
6.46142122071e-07
-5.70288784496e-08
4.91269140944e-07
-6.5743734759e-08
3.77260839194e-07
-4.14546011245e-08
3.1752335896e-07
2.90261554504e-07
-1.59639632388e-07
1.10933851424e-06
-2.63584400235e-07
1.26327956889e-06
-2.26998144935e-07
1.04833457721e-06
-3.20683204681e-07
8.48085342359e-07
-5.02271950906e-07
1.1418352671e-06
-5.43950114466e-07
1.15769064976e-06
-6.19941008786e-07
1.17195378714e-06
-6.6577668506e-07
1.10067531979e-06
-7.41446900515e-07
9.33572361161e-07
-7.51547247365e-07
8.27189195262e-07
-8.42535069571e-07
6.09999670052e-07
-9.55627963634e-07
6.10833357554e-07
-1.08268188485e-06
6.36866183168e-07
-1.2306230211e-06
7.79789836253e-07
-1.31988390203e-06
8.14235241101e-07
-1.36652215301e-06
6.98476128555e-07
-1.46190270749e-06
6.78579479362e-07
-1.56257019934e-06
7.20356265693e-07
-1.64618715491e-06
7.37042045066e-07
-1.72337736123e-06
7.21179630392e-07
-1.79594522544e-06
6.86903950631e-07
-1.85902883736e-06
6.3843457389e-07
-1.89808321613e-06
5.7886608639e-07
-1.92934494046e-06
5.29928842917e-07
-1.98961093429e-06
4.88318587493e-07
-2.02772557291e-06
4.24759251544e-07
-2.04048119969e-06
3.74497288032e-07
-2.06789294933e-06
3.49849148755e-07
-2.12194403721e-06
3.3964526048e-07
-2.19295079348e-06
3.40190578367e-07
-2.25958519518e-06
3.19383922916e-07
-2.31528263714e-06
3.21350092367e-07
-2.37550915965e-06
3.44527019707e-07
-2.41157556158e-06
3.34634964756e-07
-2.43921185899e-06
3.05564438439e-07
-2.4649712829e-06
2.69473874116e-07
-2.48789102552e-06
2.31515557988e-07
-2.5070393818e-06
1.93083240023e-07
-2.52270630174e-06
1.53283162955e-07
-2.53541670503e-06
1.10433112708e-07
-2.54493978737e-06
6.36665812641e-08
-2.55034266979e-06
1.36793787211e-08
-2.55058010502e-06
-3.81907941113e-08
-2.54483851806e-06
-9.13045570057e-08
-2.53252153376e-06
-1.46132912459e-07
-2.51309091675e-06
-2.03912353112e-07
-2.48598368188e-06
-2.66149442935e-07
-2.45063594047e-06
-3.34256443923e-07
-2.40645532691e-06
-4.09533203925e-07
-2.35263050894e-06
-4.93619695676e-07
-2.28770960814e-06
-5.89173578672e-07
-2.20888226551e-06
-7.00489500497e-07
-2.11125305913e-06
-8.33785291858e-07
-1.98801230025e-06
-9.96229018281e-07
-1.83257514654e-06
-1.19261260047e-06
-1.64126519847e-06
-1.42080823651e-06
-1.41377297187e-06
-1.66977546202e-06
-1.13774921093e-06
-1.94008359781e-06
-8.38951603194e-07
-2.15932386614e-06
-5.66398500247e-07
-2.25990863769e-06
-3.73236424188e-07
-2.1945976553e-06
-2.61130418254e-07
-2.04585313605e-06
-1.61558995054e-07
-1.97860837745e-06
-1.08975759017e-08
-2.01271704206e-06
1.96559913597e-07
-2.05548182944e-06
5.30489497213e-07
-2.04206421776e-06
9.67669644488e-07
-1.90078200848e-06
1.33212760921e-06
-1.46125511892e-06
1.48800418282e-06
-8.20695171763e-07
1.4238898636e-06
-5.14761414817e-08
1.18183040678e-06
6.19436602546e-07