/*--------------------------------*- C++ -*----------------------------------*\
| =========                 |                                                 |
| \\      /  F ield         | OpenFOAM: The Open Source CFD Toolbox           |
|  \\    /   O peration     | Version:  v1806                                 |
|   \\  /    A nd           | Web:      www.OpenFOAM.com                      |
|    \\/     M anipulation  |                                                 |
\*---------------------------------------------------------------------------*/
FoamFile
{
    version     2.0;
    format      ascii;
    class       volVectorField;
    location    "930";
    object      Ua;
}
// * * * * * * * * * * * * * * * * * * * * * * * * * * * * * * * * * * * * * //

dimensions      [0 1 -1 0 0 0 0];


internalField   nonuniform List<vector> 
6400
(
(2.09260860638e-05 2.78241148005e-05 0)
(5.60037513504e-05 2.05722947396e-05 0)
(8.16210531606e-05 1.6514210265e-05 0)
(0.000108820962912 1.49531340285e-05 0)
(0.000130258175497 1.105868655e-05 0)
(0.000147516956542 8.21872745826e-06 0)
(0.000160394871254 7.5536254803e-06 0)
(0.000173458237827 9.97003075143e-06 0)
(0.000196895027555 1.28755731536e-05 0)
(0.000221535861988 1.32173290678e-05 0)
(0.000239220746538 1.28713411919e-05 0)
(0.000264163441106 1.38283456497e-05 0)
(0.000289544282817 1.40761561711e-05 0)
(0.000314062551858 1.39108830587e-05 0)
(0.000337694304129 1.43233713439e-05 0)
(0.000363332603345 1.57781426457e-05 0)
(0.00039245287032 1.67267633549e-05 0)
(0.00042158828973 1.68097288925e-05 0)
(0.000449876717714 1.67688414982e-05 0)
(0.000479940192812 1.75206205822e-05 0)
(0.000514457834604 1.98953503461e-05 0)
(0.000552629706302 2.20301958724e-05 0)
(0.000592144223683 2.27301582404e-05 0)
(0.000630988337906 2.27912375833e-05 0)
(0.000669626967627 2.26540142031e-05 0)
(0.000708754430018 2.25587378794e-05 0)
(0.0007489274755 2.28541380389e-05 0)
(0.000789334840485 2.30641967673e-05 0)
(0.000829303747654 2.30530423022e-05 0)
(0.000868847488215 2.30996549052e-05 0)
(0.000907952418482 2.3436701204e-05 0)
(0.000948054116134 2.36567681914e-05 0)
(0.000989341039544 2.3744865248e-05 0)
(0.00103071318447 2.43428886099e-05 0)
(0.00107279775776 2.48507837511e-05 0)
(0.00111715932589 2.51647826748e-05 0)
(0.00116043673895 2.53888273395e-05 0)
(0.00119978024106 2.49641893404e-05 0)
(0.00124166442592 2.42039718369e-05 0)
(0.00128521136755 2.35690733499e-05 0)
(0.00132454635696 2.34034636019e-05 0)
(0.00135797806434 2.23850143993e-05 0)
(0.0013889683534 2.00049368559e-05 0)
(0.00141892495273 1.81953783291e-05 0)
(0.00144655460966 1.71096581875e-05 0)
(0.00147173918529 1.59373196325e-05 0)
(0.00149426813113 1.46361097417e-05 0)
(0.00151368586602 1.30618177616e-05 0)
(0.00152996711005 1.14607019071e-05 0)
(0.00154292092225 1.06789417695e-05 0)
(0.00155364111462 1.08897194858e-05 0)
(0.00156455134798 9.89786057542e-06 0)
(0.00157168069666 6.1428324736e-06 0)
(0.00157622988316 3.58497762363e-06 0)
(0.0015721273976 1.07378651302e-06 0)
(0.0015549118847 -2.60291791446e-06 0)
(0.00153663945831 -2.31742210506e-06 0)
(0.00152846068899 -1.22226758647e-07 0)
(0.00152186374968 -1.08443738341e-06 0)
(0.00150056018571 -1.79650305688e-06 0)
(0.00148176380431 1.43876309588e-06 0)
(0.00147121358775 1.340608319e-07 0)
(0.00149717338285 -1.13198833488e-05 0)
(0.00148285573811 -3.29756404733e-05 0)
(0.00132248713334 -4.12145059061e-05 0)
(0.00117874536307 -3.50809423023e-05 0)
(0.00110622798334 -3.7207797101e-05 0)
(0.00105583205826 -3.87886567986e-05 0)
(0.00100237838602 -4.18835128785e-05 0)
(0.00091797025569 -4.70860740184e-05 0)
(0.000823656939983 -5.08822946287e-05 0)
(0.000708358097633 -5.15462806987e-05 0)
(0.000594646846701 -5.25476840404e-05 0)
(0.000517658514483 -5.70148978743e-05 0)
(0.000378695804324 -4.50920907309e-05 0)
(0.000325675693791 -3.91299089706e-05 0)
(0.000210672023401 -2.38116550984e-05 0)
(0.000215590043688 -3.21010204133e-05 0)
(9.13352459905e-05 -2.2230122942e-05 0)
(6.80792159301e-05 -4.07055437319e-05 0)
(8.13602070199e-06 3.96686616607e-05 0)
(3.47360255602e-05 4.38585403132e-05 0)
(6.04133930671e-05 3.93117300694e-05 0)
(7.81800457471e-05 3.24407192055e-05 0)
(0.000111159624172 3.24666648664e-05 0)
(0.000140222811166 2.53726500328e-05 0)
(0.000159840846007 2.07640861583e-05 0)
(0.000177266042285 2.6591127784e-05 0)
(0.000197078653243 3.26928154354e-05 0)
(0.000219103932197 3.37912126264e-05 0)
(0.000241337111182 3.38405870138e-05 0)
(0.000263632624903 3.47973243159e-05 0)
(0.000286528529408 3.50123523617e-05 0)
(0.000309944931496 3.50799123453e-05 0)
(0.000334979828557 3.6677986334e-05 0)
(0.00036160800206 4.15012481664e-05 0)
(0.000389863814914 4.4945025123e-05 0)
(0.000417760966061 4.33057603327e-05 0)
(0.000440384791461 4.23261320171e-05 0)
(0.000472298274116 4.55841990073e-05 0)
(0.000509697456203 5.19933731705e-05 0)
(0.000549258595191 5.8116692034e-05 0)
(0.000590266273024 5.97821753543e-05 0)
(0.0006297444857 5.85470216638e-05 0)
(0.000665956941611 5.77670813027e-05 0)
(0.000706266020656 5.82611405553e-05 0)
(0.000747103320772 5.86869801961e-05 0)
(0.000786992827295 5.86808241574e-05 0)
(0.00082675333513 5.85789226489e-05 0)
(0.000866745547034 5.87025222563e-05 0)
(0.000906545269678 5.92931221161e-05 0)
(0.000945193342743 5.95650762065e-05 0)
(0.000986583961222 5.94487908481e-05 0)
(0.00102797888327 6.11246698052e-05 0)
(0.00106965642304 6.30402716005e-05 0)
(0.00111618031109 6.30168195141e-05 0)
(0.00115874289316 6.28815736525e-05 0)
(0.00119821799691 6.23098811603e-05 0)
(0.00124163297684 6.04057831584e-05 0)
(0.00128806019292 5.73984878236e-05 0)
(0.00132806433438 5.27227553358e-05 0)
(0.00134993056206 4.73582071098e-05 0)
(0.00137445283705 4.34947463043e-05 0)
(0.00140608236514 4.08223478465e-05 0)
(0.00143485794808 3.80653153237e-05 0)
(0.00146205416578 3.47820024507e-05 0)
(0.0014871846822 3.08434626074e-05 0)
(0.00150839373714 2.63586619934e-05 0)
(0.00152821283043 2.16526146767e-05 0)
(0.00154440133988 1.72033457961e-05 0)
(0.001553469804 1.34964160616e-05 0)
(0.00155226623655 1.00410048461e-05 0)
(0.00155389030116 6.10646246632e-06 0)
(0.00157633373965 -7.53057993394e-07 0)
(0.00156859389365 -1.15897343989e-05 0)
(0.00155633485802 -1.93624611647e-05 0)
(0.00155464103319 -1.97615020266e-05 0)
(0.00154642269866 -1.86925089613e-05 0)
(0.00153317806974 -2.18952660807e-05 0)
(0.00152044715797 -2.52651143622e-05 0)
(0.00150441337892 -2.63439457894e-05 0)
(0.00146433620268 -3.10947686e-05 0)
(0.00148779858618 -6.30493139402e-05 0)
(0.00145346811868 -0.000125747097267 0)
(0.00131377980036 -0.000160194647762 0)
(0.00112051134417 -0.000137142924903 0)
(0.00101699552103 -0.000106334554083 0)
(0.00101145082104 -0.000100960092253 0)
(0.000963535697085 -0.000117929795216 0)
(0.00090105699009 -0.000145295871129 0)
(0.000797602156313 -0.000163809005309 0)
(0.000678279715774 -0.000164458887955 0)
(0.000550718572064 -0.000144812834204 0)
(0.000490879914955 -0.00014085297092 0)
(0.000412150548737 -0.000129394756764 0)
(0.000343061928838 -0.000115645413216 0)
(0.000274350851127 -9.64622729415e-05 0)
(0.000213231599618 -9.63580781661e-05 0)
(0.00013019018546 -9.97686448678e-05 0)
(5.99580688944e-05 -0.000160639686971 0)
(1.09911895179e-05 6.81064711692e-05 0)
(3.17906575732e-05 7.25748221862e-05 0)
(4.98861345209e-05 6.7871066069e-05 6.96404365697e-29)
(8.2633150538e-05 6.78697374378e-05 -6.30409281137e-29)
(0.000113269763949 6.71051272909e-05 -5.42381695572e-29)
(0.000134425670437 5.75176881617e-05 4.8970663529e-29)
(0.000151592173703 4.15123713586e-05 -4.85026826122e-29)
(0.000169249792732 4.65649709906e-05 4.62151100223e-29)
(0.000189669039872 5.49158287103e-05 0)
(0.000212240375089 5.76130074555e-05 0)
(0.000235264787556 5.78023705511e-05 0)
(0.000257758338893 5.78288943869e-05 0)
(0.000280259384115 5.8138513275e-05 0)
(0.000303190043672 5.99552804769e-05 0)
(0.000328466272342 6.4086143787e-05 0)
(0.000355366075147 6.75298036006e-05 0)
(0.000358692728072 6.46901981128e-05 0)
(0.000372072927571 6.37585707608e-05 0)
(0.000402946481076 7.05545247301e-05 0)
(0.000445880723594 8.38845152978e-05 0)
(0.000504657761664 9.73225655653e-05 0)
(0.000548444201021 0.000101600105495 0)
(0.000583058373285 0.000100337966124 0)
(0.000622081024419 9.88935940302e-05 0)
(0.000662527979642 9.87536665748e-05 0)
(0.000701663269303 9.93682793196e-05 0)
(0.000741105914456 9.96496445291e-05 0)
(0.000781244101672 9.97578314788e-05 0)
(0.000821439075945 9.99554996364e-05 0)
(0.000861481547985 0.000100379684314 7.65428361357e-29)
(0.000902227392463 0.000100887022344 -7.37490706122e-29)
(0.000939762146633 0.00010113556226 0)
(0.000981035587123 0.000101877208769 0)
(0.00102664229397 0.000103780343011 0)
(0.00106269611396 0.000107128724983 0)
(0.00110991629602 0.000109368365972 0)
(0.00115931212809 0.000108007858604 0)
(0.00119536750052 0.000106305451853 0)
(0.0012395315093 0.000105224303996 0)
(0.00128649557288 0.000100032291887 0)
(0.00132670773579 8.96095234102e-05 0)
(0.00135982816582 8.00148066693e-05 0)
(0.00139063603618 7.51915998525e-05 0)
(0.001420744229 7.17122382854e-05 0)
(0.00144862097837 6.71589356794e-05 0)
(0.00147379789704 6.16330012322e-05 0)
(0.00149633435267 5.51118407548e-05 0)
(0.00151619552177 4.80082226283e-05 0)
(0.00153345232405 4.03689534778e-05 0)
(0.00154780199056 3.18671353919e-05 0)
(0.00155878429009 2.33357485346e-05 0)
(0.00156672033802 1.71200266416e-05 0)
(0.00157259437453 1.28576284605e-05 0)
(0.00157175521064 2.20336899517e-06 0)
(0.00156373962074 -1.25963135722e-05 0)
(0.00156207697922 -2.11659631504e-05 0)
(0.00155800699481 -2.47832461227e-05 0)
(0.00154767976524 -2.8319769215e-05 0)
(0.00153387608773 -3.28879454608e-05 0)
(0.00151800550805 -3.83019219034e-05 0)
(0.00149602713652 -4.66357177077e-05 0)
(0.00147834867149 -6.4430887044e-05 0)
(0.0014552508344 -0.000132317533968 0)
(0.00134951325878 -0.000233963987193 0)
(0.00115343889338 -0.000252653844539 0)
(0.00105701598839 -0.00021516075913 0)
(0.00101851062901 -0.000176768318375 0)
(0.000955549904512 -0.000165732087949 0)
(0.000890138294889 -0.000193400425687 0)
(0.000810453602716 -0.000233317960027 0)
(0.000709706143412 -0.000253406838763 0)
(0.000614970698341 -0.00024484586205 0)
(0.000554766617546 -0.000228820433225 0)
(0.000493543344789 -0.000222736878795 0)
(0.000411329570915 -0.00021414203826 0)
(0.000327903951155 -0.000193459644738 0)
(0.000251690415894 -0.000169451879631 0)
(0.000190349953985 -0.000176261177874 0)
(0.000130861078416 -0.000224172889734 0)
(3.31780544448e-05 -0.00021928711343 0)
(9.82737440007e-06 9.74236131456e-05 0)
(1.56220166301e-05 7.00248820031e-05 0)
(3.83752279237e-05 9.91817339221e-05 0)
(6.75094942385e-05 9.89718438622e-05 0)
(9.61915980231e-05 8.82704753262e-05 0)
(6.32037242554e-05 4.21141409784e-05 0)
(8.17838793169e-05 4.71165712349e-05 0)
(0.000144492194582 8.03564006509e-05 0)
(0.000175066474256 8.50343529843e-05 0)
(0.000200516816837 8.28971282281e-05 0)
(0.000225298453449 8.18892210209e-05 0)
(0.000248702094137 8.07602910527e-05 0)
(0.000271394159503 8.11178257411e-05 0)
(0.000292564295789 8.17586409827e-05 0)
(0.00030114266408 7.90493799822e-05 0)
(0.000309288707994 7.69507317326e-05 0)
(0.000328515215631 8.0413903687e-05 0)
(0.000363704982515 9.43780261591e-05 0)
(0.000416602909802 0.000116282107675 0)
(0.000466256340616 0.000135003991042 0)
(0.000501440097387 0.000140985393656 0)
(0.000537976647725 0.000140307860669 0)
(0.000576608708142 0.000139192312737 0)
(0.000615122432456 0.000138599563082 0)
(0.000653731261292 0.000138286720333 0)
(0.000692596134851 0.000138465501948 0)
(0.000732004084863 0.000139096611078 0)
(0.000772994366985 0.00013982437429 0)
(0.000812955663382 0.000140185610345 0)
(0.000854684775602 0.000140928966733 0)
(0.000893174600053 0.000141231616515 0)
(0.000935344809821 0.000141810927399 0)
(0.000971667751103 0.000141726670984 0)
(0.00101663222152 0.000145759231622 0)
(0.00106690448378 0.000151717359298 0)
(0.00110585290547 0.00015430719872 0)
(0.0011550742109 0.000153716823801 0)
(0.0012036955333 0.000151290735095 0)
(0.00124591164593 0.000147791596249 0)
(0.00128640174627 0.000139725066991 0)
(0.00132492156566 0.000127255842819 0)
(0.0013599779282 0.000115215455004 0)
(0.00139243223372 0.000106729715391 0)
(0.00142290920452 0.000100080181925 0)
(0.00145086135618 9.3002924603e-05 0)
(0.00147607679107 8.4934012753e-05 -6.13513108872e-29)
(0.00149859571883 7.59306828965e-05 6.15455703113e-29)
(0.00151840795495 6.62061155461e-05 0)
(0.00153550577961 5.58143245125e-05 0)
(0.0015497298712 4.48251718404e-05 0)
(0.0015608090556 3.39876842442e-05 0)
(0.00156852380202 2.40462682269e-05 0)
(0.00157259711928 1.33440986628e-05 0)
(0.00157209031276 -7.31107506013e-07 0)
(0.00156854977992 -1.48664692997e-05 0)
(0.0015645290861 -2.53481359678e-05 0)
(0.00155807378837 -3.36591170572e-05 0)
(0.00154683185154 -4.14411045965e-05 -1.10600627878e-28)
(0.00153099554625 -4.96559719002e-05 1.26180559305e-28)
(0.00150998036469 -6.00797983602e-05 0)
(0.0014810120381 -7.82609231073e-05 0)
(0.00144083266426 -0.000124805327089 0)
(0.0013634574459 -0.000229836156027 0)
(0.0012594191839 -0.000346082401524 0)
(0.00117642448179 -0.000370294065896 0)
(0.00101809565242 -0.0002845904393 0)
(0.000929481711549 -0.000233872865137 0)
(0.000876055512395 -0.000234376395015 0)
(0.000817634778361 -0.00026837199681 0)
(0.000763971528669 -0.000321111401625 0)
(0.000690566320534 -0.000347720439069 0)
(0.000611354693005 -0.000336229161387 0)
(0.000527128732841 -0.000315660273668 0)
(0.000419032512608 -0.00029297595188 0)
(0.000339576146482 -0.000284424110482 0)
(0.000266295001113 -0.000277037632933 0)
(0.000187892027204 -0.000247223459191 0)
(0.000107670741883 -0.000196735459101 0)
(7.84168845697e-05 -0.000247442513247 0)
(2.63627212346e-05 -0.000284683064068 0)
(6.85727133886e-07 9.86845090486e-05 0)
(7.83097492748e-06 8.37634300541e-05 0)
(3.14911711613e-05 0.000125154164257 0)
(5.43700909299e-05 0.000119539551308 0)
(6.33131159205e-05 8.94639268452e-05 0)
(5.44153727433e-05 5.77383083394e-05 0)
(9.40484795936e-05 9.03743195142e-05 0)
(0.000135699791758 0.000118729299314 0)
(0.000157853187481 0.000114557825256 0)
(0.00018448574586 0.000109668953794 0)
(0.000210568467599 0.000108191589731 0)
(0.000234782089166 0.000105977364079 0)
(0.000249899952527 9.93400814517e-05 0)
(0.00025011920938 8.9185169762e-05 0)
(0.000268307501286 9.17032164872e-05 0)
(0.000298423082499 0.000102973837953 0)
(0.000339197207651 0.000120881626796 0)
(0.000384464927689 0.000143058451178 0)
(0.000423264394973 0.000160723353597 0)
(0.000453676565322 0.000169259464236 0)
(0.000488899686209 0.000175321267157 0)
(0.00052727568442 0.000178552384808 0)
(0.000565090021475 0.000178428536652 0)
(0.000603312932189 0.000177518956038 0)
(0.000641745456211 0.000177177388913 0)
(0.000680422854031 0.000177910590064 0)
(0.000721074813593 0.0001793329879 0)
(0.000760373772005 0.000180109208598 0)
(0.000803335582462 0.000181272017622 0)
(0.000841514760861 0.000181239108497 0)
(0.000885770732939 0.000182584772985 7.3443264613e-29)
(0.000917930487294 0.000181651842456 -7.02895888455e-29)
(0.000967010799599 0.000185997926633 0)
(0.00101726208867 0.000191858141273 0)
(0.00105931425441 0.000197068658969 0)
(0.00111140735811 0.000202178572037 0)
(0.00115872330528 0.00020199786584 0)
(0.0012030980475 0.000196381742601 0)
(0.00124527884699 0.000188473637352 0)
(0.00128579091823 0.000178089129271 0)
(0.00132458295554 0.000164763017976 0)
(0.00136085553896 0.000151089069829 0)
(0.0013944955822 0.000139528913489 0)
(0.00142557117887 0.000129541553179 0)
(0.00145385185121 0.000119527888235 0)
(0.00147927091856 0.000108738132506 0)
(0.00150186842332 9.70760097109e-05 0)
(0.00152164158412 8.46473050664e-05 0)
(0.00153854764352 7.15085675661e-05 0)
(0.00155246626411 5.7781647086e-05 0)
(0.00156318333859 4.38797081398e-05 0)
(0.00157038618255 2.99467546564e-05 0)
(0.00157371509989 1.5007118224e-05 0)
(0.00157308645123 -1.55477655636e-06 0)
(0.00156977371084 -1.76213074585e-05 0)
(0.00156472879167 -3.15027058174e-05 0)
(0.00155611389717 -4.4307820474e-05 0)
(0.00154151769983 -5.75708795761e-05 0)
(0.00151935405946 -7.30801673166e-05 0)
(0.00148692883031 -9.51655425654e-05 0)
(0.00143945287627 -0.000134305542888 0)
(0.00137034672767 -0.00020860743064 0)
(0.00126838438345 -0.000320816762725 0)
(0.0011973944922 -0.000423926665506 0)
(0.0011514014047 -0.000459155153861 0)
(0.00102453374257 -0.000396772214999 0)
(0.000911595333636 -0.000335115898414 0)
(0.00082149249223 -0.000313986857465 0)
(0.000747297713964 -0.000334537048251 0)
(0.000691729342829 -0.000383173366308 0)
(0.000636742995681 -0.000425722630241 0)
(0.000554871725065 -0.000426942657963 0)
(0.000439908866778 -0.000389876402625 0)
(0.000359069399634 -0.000376222278955 0)
(0.000282600120397 -0.00037356476542 0)
(0.000206237594933 -0.00036040030791 0)
(0.000134696419169 -0.000296310089276 0)
(8.48839140849e-05 -0.000250375384976 0)
(5.27557063335e-05 -0.000307654102354 0)
(1.29862319051e-05 -0.000315539116469 0)
(-7.22965900684e-07 9.23259107293e-05 0)
(8.04947181552e-06 9.9135766816e-05 0)
(2.87374456926e-05 0.000140731709498 0)
(4.222311111e-05 0.00012697089406 0)
(3.45177170145e-05 7.33321492938e-05 0)
(5.05371074804e-05 7.90460904599e-05 0)
(0.000102655940452 0.000132149767741 0)
(0.000121510468528 0.000140644441821 0)
(0.000141276499123 0.000138545512723 0)
(0.000165490915216 0.000136946066537 0)
(0.000191286448037 0.000131687556036 0)
(0.000195165608514 0.000114942776305 0)
(0.000191507434536 9.7754520187e-05 0)
(0.000214507822134 0.000103946825417 0)
(0.000245947826615 0.000120960335601 0)
(0.000292246740239 0.000145122739813 0)
(0.000338194576936 0.000166293201955 0)
(0.000375572692034 0.000180900081364 0)
(0.000402513748407 0.000189884642714 0)
(0.000437803419978 0.000202486955988 0)
(0.000476132570016 0.00021273989114 0)
(0.000512752929668 0.000216359299889 0)
(0.000549906497552 0.000216700097242 0)
(0.000587692027533 0.000216274147769 0)
(0.000627275358319 0.000216732574237 0)
(0.000666137774186 0.000217325899885 0)
(0.000703035915558 0.000218986129103 0)
(0.00074827744832 0.00022204219418 0)
(0.000784217672029 0.000221196665987 0)
(0.000831710033346 0.000222732898586 0)
(0.000860828736735 0.000220862234825 0)
(0.000913148330314 0.000226942419795 0)
(0.000947676271313 0.000230276027441 0)
(0.00100602749525 0.0002402468632 0)
(0.00106323709837 0.000249036449622 0)
(0.00111190970883 0.000251758729382 0)
(0.0011573224696 0.000247689380381 0)
(0.00120137083514 0.000239809403934 0)
(0.00124407630376 0.000229811724763 0)
(0.00128535474216 0.000217586978414 0)
(0.0013249097665 0.000202975531974 0)
(0.00136221105354 0.000187533794174 0)
(0.00139689129482 0.000173076833661 0)
(0.00142872079763 0.000159709541518 0)
(0.00145753378081 0.000146489361841 0)
(0.00148329597668 0.000132728211673 0)
(0.00150604462074 0.000118206864894 0)
(0.00152575667749 0.000102919512642 0)
(0.00154235772794 8.68885316862e-05 0)
(0.00155574723157 7.0195041785e-05 0)
(0.0015657643989 5.30052994882e-05 0)
(0.00157216094927 3.52693609317e-05 0)
(0.001574741669 1.65954011105e-05 0)
(0.00157369708385 -2.83825193223e-06 0)
(0.00156966119051 -2.1844274504e-05 0)
(0.00156228652563 -4.01874954205e-05 0)
(0.00154915030353 -5.93835710203e-05 0)
(0.00152715142445 -8.15941528397e-05 0)
(0.00149325302916 -0.000110024490585 0)
(0.00144344864157 -0.000150535008016 0)
(0.00137455838971 -0.000212325150206 0)
(0.00128586306737 -0.000300052215683 0)
(0.00117194407956 -0.000393694173892 0)
(0.00114402013955 -0.000500105757802 0)
(0.00105113629876 -0.00052749699887 0)
(0.000935083692667 -0.000476275737143 0)
(0.000850491884201 -0.000431086945224 0)
(0.000762147867474 -0.000400775289569 0)
(0.000677986520492 -0.000400721446548 0)
(0.000630903213853 -0.000454117202173 0)
(0.000576464777705 -0.000514438458832 0)
(0.000470871905793 -0.000496047278759 0)
(0.000381062012021 -0.000467641328047 0)
(0.000307766821003 -0.000465505581892 0)
(0.000224227902434 -0.000457205250995 0)
(0.000158957498973 -0.000428245100613 0)
(9.99027971036e-05 -0.000333723598072 0)
(6.04898886222e-05 -0.000291272624988 0)
(3.36886062029e-05 -0.000341127419969 0)
(9.06281388774e-06 -0.000336206155172 0)
(2.21547808221e-06 9.85132983088e-05 0)
(1.61982447584e-05 0.000123087545225 0)
(3.38014335911e-05 0.000150101142547 0)
(3.65438694499e-05 0.000148343641179 0)
(2.85752627843e-05 9.16778578551e-05 0)
(6.31681366468e-05 0.00012680404758 0)
(9.43616863181e-05 0.000154277132193 0)
(0.000106868256174 0.000157320680552 0)
(0.000124413810283 0.000158141756254 0)
(0.000142076439068 0.000157447043859 0)
(0.000168215205709 0.000151632000153 -2.20308510932e-28)
(0.000148324873598 0.00011182720467 1.49965378378e-28)
(0.000173305171052 0.000118102994141 0)
(0.000197399045201 0.00013397501326 0)
(0.000239410656302 0.000163359648718 0)
(0.000286954667983 0.000192532186899 0)
(0.000323545612916 0.000205727426233 0)
(0.000345918467478 0.000208456004429 0)
(0.000381566858021 0.000223011160168 0)
(0.000422062508205 0.000240480719061 0)
(0.000457626251417 0.000249451303975 0)
(0.000494263142164 0.000253472743444 0)
(0.000531934297645 0.000255134862027 0)
(0.000570189917517 0.000255158633318 0)
(0.000607227528943 0.000254536619193 0)
(0.000644125942107 0.000255495352512 0)
(0.000688142011327 0.000259642175847 0)
(0.000721112151635 0.000261197723644 0)
(0.000772081996216 0.000264258665743 0)
(0.000799017975076 0.000258498529772 0)
(0.000854206635821 0.000265595497016 0)
(0.00088949759142 0.000270807854096 -6.98034190528e-29)
(0.000947204165033 0.00028245163889 6.94763435721e-29)
(0.00100137748694 0.000294863050798 0)
(0.00106016621423 0.000302744753571 0)
(0.00110864950737 0.000300456779039 0)
(0.00115399280145 0.000293172956655 0)
(0.00119872234068 0.000283601403995 0)
(0.00124262153498 0.000272091290828 0)
(0.00128510460425 0.000258279637817 0)
(0.00132572793156 0.000242132545163 0)
(0.0013641193452 0.000224724729326 0)
(0.00139984973368 0.000207432105572 0)
(0.0014325557283 0.000190684618678 0)
(0.00146204102939 0.000174058545577 0)
(0.00148825302261 0.000157045459766 0)
(0.00151117701373 0.000139375110202 0)
(0.00153073703783 0.000120949633028 0)
(0.0015468360888 0.000101748304926 0)
(0.00155941151095 8.1807457271e-05 0)
(0.00156839223896 6.11745327707e-05 0)
(0.00157366325541 3.97890468001e-05 0)
(0.00157516955429 1.75538909141e-05 0)
(0.00157297352818 -5.34330701922e-06 0)
(0.00156683541497 -2.87756085223e-05 0)
(0.00155508656929 -5.379475008e-05 0)
(0.00153434294633 -8.26725681812e-05 0)
(0.00150088813623 -0.000118096685887 0)
(0.00145203629181 -0.000163286709672 0)
(0.00138735481907 -0.000222052021509 0)
(0.00130863127102 -0.000297009422737 0)
(0.00122122993527 -0.000384874197099 0)
(0.00114575567725 -0.00047857333624 0)
(0.00107980661587 -0.000577313255613 0)
(0.000992104685182 -0.000615380417125 0)
(0.000840354851905 -0.000542446665836 0)
(0.00078515187678 -0.000511200546566 0)
(0.00071671151164 -0.000492986420171 0)
(0.000636874993498 -0.000490778338861 0)
(0.000576106958842 -0.000536911591788 0)
(0.000506848481001 -0.000580297865819 0)
(0.000414269879819 -0.000561205096453 0)
(0.000340839091687 -0.000559050216576 0)
(0.000253335948562 -0.000554908954055 0)
(0.00017280742231 -0.00053623290283 0)
(0.00011374649202 -0.000463067998243 0)
(7.11420773724e-05 -0.000383568602405 0)
(2.93707335379e-05 -0.000325933059333 0)
(1.00223948239e-05 -0.000356600345314 0)
(3.54655630988e-06 -0.000355630821315 0)
(4.83839042704e-06 0.000111385730575 0)
(2.07142360549e-05 0.000142629375933 0)
(3.42236714398e-05 0.000154391254811 0)
(2.19548876223e-05 0.000108637588491 0)
(2.63755247833e-05 0.000109153810471 0)
(6.28655162464e-05 0.000160686644131 0)
(7.83935627439e-05 0.000168558445687 0)
(9.22496760695e-05 0.00017240525776 0)
(0.00010323404341 0.00017380617965 0)
(0.000122165564631 0.00017539503703 0)
(0.000111506609659 0.000132294726626 0)
(0.000129276787664 0.000130119565497 0)
(0.000154059344683 0.000143160590791 0)
(0.000182097946598 0.000166998845629 0)
(0.000232224122093 0.000209238256658 0)
(0.000269695445554 0.000229831792069 0)
(0.000288562299796 0.000228876091986 0)
(0.00032009287587 0.000240469675845 0)
(0.000362357501374 0.000262775508508 0)
(0.000400110849651 0.000277906695219 0)
(0.000435052910072 0.00028543804301 0)
(0.000471053469528 0.000290028995697 0)
(0.000509564629012 0.000293696899987 0)
(0.000547762260859 0.000294350284105 0)
(0.000587493405611 0.000293481287671 0)
(0.000620876740561 0.00029505860563 0)
(0.000668548615959 0.000301551992476 0)
(0.000704892501356 0.000301927608003 0)
(0.000738241384195 0.000300001237728 0)
(0.000784710136119 0.000304452894257 0)
(0.000844873444932 0.000315760868151 0)
(0.000884097754594 0.000320199473797 0)
(0.000933424695822 0.000334557099851 0)
(0.0010015230416 0.000352418524917 0)
(0.00105355945322 0.000355433525269 0)
(0.00110197618708 0.000349040600711 0)
(0.00114917468874 0.000339651058965 0)
(0.00119549621101 0.000328708401066 0)
(0.00124092648734 0.000315811913841 0)
(0.00128493340503 0.000300406784253 0)
(0.0013269520307 0.000282486730028 0)
(0.00136661023428 0.000262884445647 0)
(0.00140351510498 0.000242708032077 0)
(0.0014372509213 0.000222537304336 0)
(0.00146754970259 0.000202312814883 -5.96357510537e-29)
(0.00149429009369 0.000181729186712 5.9363179975e-29)
(0.00151736347211 0.00016052273061 0)
(0.00153661714748 0.00013855117821 0)
(0.00155193958036 0.000115790353483 0)
(0.00156333035178 9.22835898011e-05 0)
(0.00157083634968 6.80492995076e-05 0)
(0.00157449051228 4.30107797562e-05 0)
(0.00157428226425 1.70033926955e-05 0)
(0.00156990256528 -1.03629009588e-05 0)
(0.00156001651739 -4.02544364428e-05 0)
(0.00154153348805 -7.50446307639e-05 0)
(0.00151028764172 -0.000117192340432 0)
(0.00146376773861 -0.000168141908493 0)
(0.00140322836398 -0.000228776997545 0)
(0.00133201225774 -0.00029951476814 0)
(0.00125383987796 -0.000377907462366 0)
(0.00117665361041 -0.000461024007539 0)
(0.00110832990193 -0.000550403628318 0)
(0.0010364869977 -0.000644894415269 0)
(0.0010118325842 -0.000738267736259 0)
(0.000827813637921 -0.000652200245847 0)
(0.000703908637031 -0.000583872150753 0)
(0.000638625919233 -0.000566909183442 0)
(0.000561901295708 -0.000560484641377 0)
(0.000508470635583 -0.000594422169439 0)
(0.000453374601652 -0.000630995388757 0)
(0.000380467831606 -0.000639464757267 0)
(0.000297417696749 -0.000654966179116 0)
(0.000200194960922 -0.000646990394059 0)
(0.000121612296934 -0.000602720723875 0)
(6.56440207959e-05 -0.000504659852181 0)
(2.49263837501e-05 -0.000431192255864 0)
(-1.1787646032e-05 -0.00036384871936 0)
(-2.43800640337e-05 -0.000358210296642 0)
(-9.93004002223e-06 -0.000358323834224 0)
(6.05237912279e-06 0.000125848561954 0)
(2.03227826724e-05 0.00015563435005 0)
(2.36163933465e-05 0.000157575466769 0)
(1.71678687334e-05 0.000116417564565 0)
(3.21301933372e-05 0.000134679338279 0)
(5.61480913721e-05 0.000174525994402 0)
(6.29250135434e-05 0.000180869054376 0)
(7.77825750204e-05 0.000185289672091 0)
(8.00322333021e-05 0.000175997758751 0)
(0.000100580340892 0.000196525927622 0)
(9.1472337471e-05 0.000147532145976 0)
(0.000113539571547 0.000151963775436 0)
(0.00013546679259 0.000169707038482 0)
(0.000172343528387 0.00020945777784 0)
(0.000213754703075 0.000247150745669 0)
(0.000242386428597 0.000259336485148 0)
(0.000260374857003 0.000258682317531 0)
(0.000296613822717 0.000278252231019 0)
(0.000336610324477 0.000300949751113 0)
(0.000373214395308 0.000314540253699 0)
(0.000409460989684 0.000322099382457 0)
(0.000444891717374 0.000326600965964 0)
(0.000482955477554 0.000331171398719 0)
(0.000517963758644 0.000331537711034 0)
(0.000553254310433 0.000328953861002 0)
(0.00060036375196 0.000336187819043 0)
(0.000627017230787 0.000336753586458 0)
(0.000688107100151 0.000347354037001 0)
(0.000716398861085 0.000345721909179 0)
(0.000778842767205 0.000358341217842 0)
(0.000811294225823 0.000358494573857 0)
(0.000879234869988 0.000376418702295 0)
(0.000936673460626 0.000395239174607 -7.13377485162e-29)
(0.000991834430915 0.000406975629867 7.02892997302e-29)
(0.0010437133809 0.000406251016646 0)
(0.00109387298879 0.00039855131227 0)
(0.00114326322754 0.000388014620243 0)
(0.00119165395326 0.000375719543821 0)
(0.00123894674268 0.000361325646391 0)
(0.00128474912287 0.000344225021791 0)
(0.00132849439566 0.000324327025984 0)
(0.00136972508503 0.000302300929687 0)
(0.00140802650845 0.000279107525438 0)
(0.00144298213281 0.000255397931276 0)
(0.00147426238754 0.000231338461729 0)
(0.00150160978424 0.000206789773691 0)
(0.00152477113836 0.000181540031735 0)
(0.001543506179 0.000155472814751 0)
(0.00155769566192 0.000128633959537 0)
(0.00156740699088 0.000101149207869 0)
(0.00157282779208 7.30560877291e-05 0)
(0.00157414894994 4.41656286188e-05 0)
(0.00157135994217 1.38707820758e-05 0)
(0.00156363248722 -1.92935868877e-05 0)
(0.00154846217553 -5.80994819134e-05 0)
(0.00152124958635 -0.000106006442074 0)
(0.00147795605231 -0.000163603427933 0)
(0.00142060928329 -0.000228232439548 0)
(0.00135558054419 -0.000299827539604 0)
(0.00128252942139 -0.000379257288343 0)
(0.001201336024 -0.000458005225093 0)
(0.00112333559481 -0.000531901637509 0)
(0.00105963725932 -0.000610358598324 0)
(0.00101017382615 -0.00069694926117 0)
(0.000981210836886 -0.000795578875614 0)
(0.000918744643287 -0.00083527738527 0)
(0.000672705153511 -0.000686252436814 0)
(0.00055332506953 -0.000648392793557 0)
(0.000494421768789 -0.000630267420717 0)
(0.000460074823463 -0.00063362570748 0)
(0.000422975707734 -0.000677826709643 0)
(0.000356783938738 -0.00072926385881 0)
(0.000255956892615 -0.000761307535836 0)
(0.000146819254927 -0.000742562406444 0)
(5.99308132786e-05 -0.000664974230837 0)
(-1.34317649305e-06 -0.00055905543875 0)
(-4.63978087011e-05 -0.000471585465155 0)
(-7.18107490602e-05 -0.000394163101091 0)
(-6.5531893393e-05 -0.000346075828298 0)
(-2.64507856113e-05 -0.000323055409234 0)
(6.2670072254e-06 0.000141311742572 0)
(1.95629325166e-05 0.000162768857923 0)
(1.70150065221e-05 0.000154823789163 0)
(1.32840093357e-05 0.000122834702272 0)