/*--------------------------------*- C++ -*----------------------------------*\
| =========                 |                                                 |
| \\      /  F ield         | OpenFOAM: The Open Source CFD Toolbox           |
|  \\    /   O peration     | Version:  v1806                                 |
|   \\  /    A nd           | Web:      www.OpenFOAM.com                      |
|    \\/     M anipulation  |                                                 |
\*---------------------------------------------------------------------------*/
FoamFile
{
    version     2.0;
    format      ascii;
    class       surfaceScalarField;
    location    "827";
    object      phia;
}
// * * * * * * * * * * * * * * * * * * * * * * * * * * * * * * * * * * * * * //

dimensions      [0 3 -1 0 0 0 0];
oriented        oriented;


internalField   nonuniform List<scalar> 
12640
(
4.49086378875e-08
-4.50127903472e-08
8.49949962588e-08
-4.0353040427e-08
1.19849782386e-07
-3.51095777569e-08
1.49630481577e-07
-3.00946031171e-08
1.73406849047e-07
-2.40374594697e-08
1.9113884195e-07
-1.77773164885e-08
2.06925810545e-07
-1.57770605431e-08
2.29034326466e-07
-2.20992832527e-08
2.57631257003e-07
-2.86287982438e-08
2.86548478175e-07
-2.89708113537e-08
3.15080146343e-07
-2.86327103589e-08
3.45517880846e-07
-3.05280046152e-08
3.76094132611e-07
-3.06721877432e-08
4.06082880056e-07
-3.00557707164e-08
4.37144091061e-07
-3.1113503068e-08
4.72046652658e-07
-3.48886280578e-08
5.09152961821e-07
-3.70952040597e-08
5.45659086408e-07
-3.64796863269e-08
5.81324871982e-07
-3.57028772284e-08
6.18799569958e-07
-3.75325658913e-08
6.62165643211e-07
-4.34534112765e-08
7.10875626375e-07
-4.87730703846e-08
7.61107980629e-07
-5.03003577558e-08
8.11063384113e-07
-4.99876972738e-08
8.6031877407e-07
-4.92916690689e-08
9.09271615987e-07
-4.89564381946e-08
9.58687987578e-07
-4.94268009116e-08
1.00827619705e-06
-4.95658819439e-08
1.05757806009e-06
-4.92888160728e-08
1.10685825664e-06
-4.92373647398e-08
1.15689616683e-06
-5.0008057127e-08
1.20731676681e-06
-5.03621514367e-08
1.25771219077e-06
-5.03424952191e-08
1.30962584647e-06
-5.18414943977e-08
1.36288098407e-06
-5.32046635831e-08
1.41678573873e-06
-5.38303367255e-08
1.47126803828e-06
-5.44264864932e-08
1.52495492791e-06
-5.36180782632e-08
1.57684086579e-06
-5.18315512388e-08
1.62710968412e-06
-5.01878618788e-08
1.67673145612e-06
-4.95481221897e-08
1.72357615215e-06
-4.67472460509e-08
1.76477651567e-06
-4.11137195114e-08
1.80193000629e-06
-3.70499685123e-08
1.83662287074e-06
-3.46018638949e-08
1.86853826275e-06
-3.18064473441e-08
1.89725352088e-06
-2.86176842848e-08
1.92203478522e-06
-2.46672414743e-08
1.94277526167e-06
-2.06378258617e-08
1.9614785248e-06
-1.85864030166e-08
1.98060032121e-06
-1.90213928724e-08
1.99711895101e-06
-1.64072085289e-08
2.00405980035e-06
-6.83961323923e-09
2.0036216045e-06
5.48551305719e-10
1.99514849719e-06
8.56915945717e-09
1.97629106905e-06
1.8954488629e-08
1.95801911291e-06
1.83426855061e-08
1.94509387888e-06
1.29846702978e-08
1.92807002509e-06
1.70550897013e-08
1.90739138369e-06
2.06828485928e-08
1.8938421584e-06
1.35113977087e-08
1.87400416257e-06
1.97972387441e-08
1.81256925509e-06
6.14491973117e-08
1.68622274465e-06
1.26464836416e-07
1.54845327281e-06
1.37874693876e-07
1.44269916287e-06
1.0586064364e-07
1.34368709613e-06
9.91037362584e-08
1.24230306968e-06
1.01480171212e-07
1.13260866739e-06
1.09807290257e-07
1.00887304335e-06
1.23879592981e-07
8.78212267073e-07
1.30814919595e-07
7.50553141445e-07
1.27800407649e-07
6.29819063529e-07
1.20879468854e-07
5.03483168282e-07
1.26484261514e-07
3.95805879968e-07
1.07823964956e-07
3.02956481871e-07
9.29668183564e-08
2.37275123227e-07
6.57875939358e-08
1.64702377808e-07
7.26315029291e-08
9.97326438123e-08
6.53478057617e-08
9.98161140711e-08
2.40739255688e-08
-6.95792540974e-08
5.55273836316e-08
-7.21567588321e-08
8.63320447482e-08
-6.62758926631e-08
1.17971898331e-07
-6.20498455499e-08
1.56416345853e-07
-6.26192025574e-08
1.86468025108e-07
-4.79753182508e-08
2.07834182146e-07
-3.71691523366e-08
2.31396505971e-07
-4.57421851427e-08
2.57949092685e-07
-5.52367609614e-08
2.86762395618e-07
-5.79188251235e-08
3.16064282535e-07
-5.80192881153e-08
3.44017032349e-07
-5.86224828094e-08
3.72318454256e-07
-5.90301527695e-08
4.02042790593e-07
-5.9835271861e-08
4.33854170655e-07
-6.28743182848e-08
4.69574939254e-07
-7.06081896341e-08
5.05655319908e-07
-7.31203185493e-08
5.37405283645e-07
-6.82825720575e-08
5.70259932597e-07
-6.85916127294e-08
6.09774591095e-07
-7.71636534646e-08
6.56448013962e-07
-9.01956233035e-08
7.08039053949e-07
-1.00476976417e-07
7.59594797791e-07
-1.01884980741e-07
8.08287933465e-07
-9.87527939104e-08
8.56715051475e-07
-9.7715520148e-08
9.06622996322e-07
-9.89057915281e-08
9.56313654148e-07
-9.90867848256e-08
1.00546190446e-06
-9.87292762881e-08
1.05482954411e-06
-9.86035601234e-08
1.10446667226e-06
-9.88666452334e-08
1.15417232262e-06
-9.96401606012e-08
1.20387759874e-06
-1.00032696554e-07
1.25362695038e-06
-1.00005353818e-07
1.3053672165e-06
-1.03539887232e-07
1.36003896968e-06
-1.07780207102e-07
1.41449187088e-06
-1.08244110901e-07
1.46871252791e-06
-1.08560898132e-07
1.52388272675e-06
-1.08744923629e-07
1.57915246071e-06
-1.07007609027e-07
1.63093468015e-06
-1.01912778257e-07
1.67240550119e-06
-9.09062085299e-08
1.70645813456e-06
-8.0721703623e-08
1.74291694365e-06
-7.74512027952e-08
1.78157100532e-06
-7.56192756764e-08
1.81905106162e-06
-7.19576527303e-08
1.85450621166e-06
-6.71691925007e-08
1.88693717388e-06
-6.09184678552e-08
1.91625213589e-06
-5.38808559175e-08
1.94193078796e-06
-4.61823009214e-08
1.96054076835e-06
-3.70899602525e-08
1.96922087311e-06
-2.75678236865e-08
1.9747283516e-06
-2.18081522374e-08
1.98942045926e-06
-2.14046008851e-08
2.00018619023e-06
-1.01138102168e-08
1.99666117404e-06
1.22090191021e-08
1.9920581592e-06
2.36412605956e-08
1.98593169483e-06
2.45556866917e-08
1.97291085179e-06
2.60568879186e-08
1.95878162941e-06
3.1223302037e-08
1.94131009407e-06
3.81469835456e-08
1.90409590286e-06
5.07277196915e-08
1.86018326432e-06
6.37024617387e-08
1.78996511955e-06
1.31711431181e-07
1.66481450077e-06
2.51688500394e-07
1.50421290982e-06
2.98614027169e-07
1.34920197465e-06
2.60971329835e-07
1.2547790838e-06
1.93626750443e-07
1.18639246445e-06
1.69965748866e-07
1.09816812509e-06
1.98152507271e-07
9.8071665618e-07
2.41458093363e-07
8.43415564207e-07
2.68253663576e-07
7.05640555894e-07
2.6570550383e-07
5.9136913433e-07
2.35282245132e-07
5.05704587576e-07
2.12288727105e-07
4.22662625545e-07
1.91009167849e-07
3.45960493089e-07
1.69796216249e-07
2.66086647732e-07
1.45797555622e-07
1.95058734657e-07
1.43865033934e-07
1.01905544767e-07
1.58561161106e-07
2.02084641219e-07
2.94046032669e-08
-9.88879636208e-08
4.48741054153e-08
-8.79299046066e-08
8.02394978396e-08
-1.01975386195e-07
1.20937932399e-07
-1.0295918728e-07
1.59127345662e-07
-1.00951973966e-07
1.79994004025e-07
-6.8968878175e-08
1.9456911732e-07
-5.19357497865e-08
2.20110540628e-07
-7.15028497515e-08
2.4933000291e-07
-8.46704239715e-08
2.78908028025e-07
-8.76726465092e-08
3.08346617146e-07
-8.76268598067e-08
3.36546079461e-07
-8.6899335081e-08
3.64554323929e-07
-8.70439198067e-08
3.94546986673e-07
-8.97771730015e-08
4.24300440084e-07
-9.257919084e-08
4.43737645198e-07
-9.00067225579e-08
4.56335184964e-07
-8.57572239768e-08
4.81386247493e-07
-9.33950367572e-08
5.26182292603e-07
-1.13497149039e-07
5.87976392737e-07
-1.39059010398e-07
6.51521295948e-07
-1.53841616851e-07
7.03853771378e-07
-1.5286983732e-07
7.51485315141e-07
-1.49583006677e-07
8.01285709138e-07
-1.48581935959e-07
8.51492800038e-07
-1.47957755788e-07
9.00351207583e-07
-1.47765248243e-07
9.49115702918e-07
-1.47861376389e-07
9.98467931247e-07
-1.48058369887e-07
1.04804678368e-06
-1.48166850433e-07
1.09807314124e-06
-1.48843886254e-07
1.14751059398e-06
-1.49035052522e-07
1.19726676743e-06
-1.49726228286e-07
1.24842731129e-06
-1.51104617453e-07
1.29830555785e-06
-1.53341750053e-07
1.35136057538e-06
-1.60786360047e-07
1.40998527976e-06
-1.66799633112e-07
1.46576813232e-06
-1.64288500607e-07
1.51966754807e-06
-1.62572674014e-07
1.57588110961e-06
-1.63157785962e-07
1.62976359154e-06
-1.55703129723e-07
1.67927150415e-06
-1.40327191964e-07
1.72481946058e-06
-1.26163030965e-07
1.76580236454e-06
-1.1833827523e-07
1.80340181993e-06
-1.13105005725e-07
1.83841024006e-06
-1.06860990794e-07
1.87049560471e-06
-9.91327682144e-08
1.89970886628e-06
-9.0018187933e-08
1.9258319458e-06
-7.98762454616e-08
1.94850747892e-06
-6.87383427232e-08
1.96803797702e-06
-5.64883558424e-08
1.98498680866e-06
-4.4393777489e-08
1.99771421513e-06
-3.44059294282e-08
2.00057309841e-06
-2.41441453916e-08
1.99732276596e-06
-6.74318635478e-09
1.9974818083e-06
1.21507010271e-08
1.99698459498e-06
2.42304376372e-08
1.98906461377e-06
3.25428526006e-08
1.97467770142e-06
4.04936332308e-08
1.95631287732e-06
4.96094034793e-08
1.93278009436e-06
6.16902283649e-08
1.90256870847e-06
8.09314889407e-08
1.8362320932e-06
1.30038899459e-07
1.69470902556e-06
2.73272227559e-07
1.50245597438e-06
4.4402702602e-07
1.3549218906e-06
4.46216612419e-07
1.28758304617e-06
3.28397357375e-07
1.20893709845e-06
2.72359880458e-07
1.10790721641e-06
2.71085402439e-07
9.97057284937e-07
3.09094136779e-07
8.74143343131e-07
3.64472318118e-07
7.56207555832e-07
3.86283832901e-07
6.64305618223e-07
3.57707857203e-07
5.84817525783e-07
3.14885494541e-07
5.04252688198e-07
2.92986657792e-07
4.10982983146e-07
2.84419352199e-07
3.1779180446e-07
2.63128013472e-07
2.39316283151e-07
2.2437884658e-07
1.80824275953e-07
2.02410700865e-07
7.79964853591e-08
2.61909699741e-07
2.80024829277e-07
1.96782598155e-08
-1.19116741045e-07
2.70795335142e-08
-9.55694107857e-08
6.4954632109e-08
-1.40099527981e-07
9.7716142573e-08
-1.35865092875e-07
1.03614561445e-07
-1.06986375259e-07
9.53722556108e-08
-6.08496629929e-08
1.33056044272e-07
-8.98850848851e-08
1.90933990939e-07
-1.29764537005e-07
2.3245850509e-07
-1.26490556747e-07
2.65353753815e-07
-1.20803872046e-07
2.96520206737e-07
-1.18910993072e-07
3.25895751729e-07
-1.16287510412e-07
3.52269529491e-07
-1.13369325723e-07
3.68731173182e-07
-1.06164670082e-07
3.77570762267e-07
-1.01386388208e-07
3.93984788751e-07
-1.06476948951e-07
4.29959983864e-07
-1.21828060151e-07
4.84999682992e-07
-1.48559483451e-07
5.48166536292e-07
-1.76774091097e-07
6.0192686807e-07
-1.92914526601e-07
6.46560097125e-07
-1.98546804719e-07
6.93746117912e-07
-2.0012885927e-07
7.43150784745e-07
-1.99035210645e-07
7.91908028526e-07
-1.97382508432e-07
8.4039623273e-07
-1.96462450721e-07
8.88954063851e-07
-1.96338918781e-07
9.3828794434e-07
-1.97186036278e-07
9.87959126247e-07
-1.97723326742e-07
1.03814470787e-06
-1.98320695563e-07
1.0878609119e-06
-1.98522883713e-07
1.13857483007e-06
-1.99692200621e-07
1.18766205045e-06
-1.98752053321e-07
1.23637121001e-06
-1.9975282643e-07
1.29282917597e-06
-2.0974944109e-07
1.34982115225e-06
-2.17716654833e-07
1.40623818872e-06
-2.23165514429e-07
1.46838616524e-06
-2.26373718472e-07
1.52838805926e-06
-2.22510572547e-07
1.58075548613e-06
-2.15442326042e-07
1.62953796232e-06
-2.04404081819e-07
1.67779917023e-06
-1.8849333378e-07
1.72430533696e-06
-1.72575209382e-07
1.76680541805e-06
-1.60729539934e-07
1.80526233313e-06
-1.51453505753e-07
1.84045869197e-06
-1.41936376674e-07
1.87261003846e-06
-1.31164847931e-07
1.9017849344e-06
-1.19064031e-07
1.92784785421e-06
-1.05813367222e-07
1.95067989874e-06
-9.14366641489e-08
1.97036704288e-06
-7.60450216178e-08
1.9865326404e-06
-6.04220542801e-08
1.99737759248e-06
-4.51173560327e-08
2.00162151091e-06
-2.82553318374e-08
2.00277642156e-06
-7.78095573993e-09
2.00261756625e-06
1.24137786304e-08
1.99829514877e-06
2.86328423709e-08
1.98809384062e-06
4.28054150355e-08
1.97128941798e-06
5.73340469434e-08
1.9464693175e-06
7.44487550149e-08
1.90897970246e-06
9.91859405705e-08
1.84531082333e-06
1.44609698734e-07
1.73379267174e-06
2.41565598334e-07
1.59687758042e-06
4.10179410124e-07
1.4730266103e-06
5.67869512066e-07
1.33444462465e-06
5.84856486683e-07
1.20331266955e-06
4.59604759545e-07
1.1014351524e-06
3.74315203414e-07
1.01274815756e-06
3.59844672214e-07
9.26600592249e-07
3.95305252854e-07
8.33628862833e-07
4.57493887499e-07
7.31000943377e-07
4.88977178644e-07
6.27571749262e-07
4.61216825874e-07
5.23904043865e-07
4.18647518919e-07
4.23053127588e-07
3.93941060036e-07
3.30449421337e-07
3.77129794654e-07
2.36246314927e-07
3.57434946417e-07
1.55518790238e-07
3.05223944417e-07
1.04283630381e-07
2.53849656472e-07
5.34718091274e-08
3.12596671592e-07
3.33745684245e-07
2.93653159647e-09
-1.21948760356e-07
2.21581810144e-08
-1.14962583293e-07
5.10408838091e-08
-1.69119109077e-07
7.43734633724e-08
-1.59232460644e-07
7.14163401938e-08
-1.04161309894e-07
9.37209246572e-08
-8.34081274153e-08
1.40927912195e-07
-1.37477830629e-07
1.76491369867e-07
-1.65671667303e-07
2.10285002153e-07
-1.60606057643e-07
2.44578287332e-07
-1.55287621247e-07
2.78708121825e-07
-1.53078643522e-07
3.02753192369e-07
-1.40314852864e-07
3.11564467055e-07
-1.22122100392e-07
3.21236954988e-07
-1.1584715326e-07
3.48569464716e-07
-1.2881805008e-07
3.93921778344e-07
-1.51963764614e-07
4.50436808431e-07
-1.78488021121e-07
5.04687280012e-07
-2.0293626812e-07
5.476200109e-07
-2.19805945886e-07
5.87470349773e-07
-2.32842146994e-07
6.32587150051e-07
-2.43734446611e-07
6.80549784164e-07
-2.48149045232e-07
7.28968798976e-07
-2.47504175662e-07
7.77143014673e-07
-2.45586186064e-07
8.25395342901e-07
-2.44736289972e-07
8.74473036373e-07
-2.4541760552e-07
9.23580070053e-07
-2.4629758471e-07
9.73970560707e-07
-2.48096099911e-07
1.02363609044e-06
-2.47952959591e-07
1.0739611828e-06
-2.48797324315e-07
1.1220857421e-06
-2.47762755392e-07
1.17424161351e-06
-2.50856178538e-07
1.23234539893e-06
-2.57808520784e-07
1.28838326363e-06
-2.65740356261e-07
1.34838696239e-06
-2.77677103292e-07
1.41208924337e-06
-2.86812414658e-07
1.4713188127e-06
-2.85540633002e-07
1.52685611136e-06
-2.77971788468e-07
1.57901498715e-06
-2.67522026169e-07
1.62875622427e-06
-2.5405630642e-07
1.67751557779e-06
-2.37160746111e-07
1.72457790758e-06
-2.19534912098e-07
1.76809652379e-06
-2.04140984714e-07
1.8075029499e-06
-1.90741337958e-07
1.8432311055e-06
-1.7754162331e-07
1.87565186676e-06
-1.63454041021e-07
1.90490271778e-06
-1.48182119744e-07
1.93094621697e-06
-1.3171828339e-07
1.95369289769e-06
-1.14044381011e-07
1.97302371717e-06
-9.52309386415e-08
1.98835296739e-06
-7.56057025203e-08
1.99854536293e-06
-5.51632014557e-08
2.00343583008e-06
-3.30087520588e-08
2.00486389295e-06
-9.08567536412e-09
2.0032223852e-06
1.41548488245e-08
1.99640283427e-06
3.55296906223e-08
1.98204195746e-06
5.72183096374e-08
1.95712720219e-06
8.22797220387e-08
1.91660413478e-06
1.14985335501e-07
1.85197224544e-06
1.63825255925e-07
1.75302951298e-06
2.43544360786e-07
1.62622012167e-06
3.68339887221e-07
1.51334546884e-06
5.23015271283e-07
1.41949356667e-06
6.61723695109e-07
1.32278574385e-06
6.81586053601e-07
1.19473431122e-06
5.87710771084e-07
1.05553569996e-06
5.13574606668e-07
9.36507158019e-07
4.78917490749e-07
8.40445068104e-07
4.91396765481e-07
7.49422222023e-07
5.48550994909e-07
6.45632388801e-07
5.92796707976e-07
5.40807497085e-07
5.66086437769e-07
4.43245984243e-07
5.16264248765e-07
3.47285870525e-07
4.89964373681e-07
2.52939646935e-07
4.71557617581e-07
1.6871297886e-07
4.41758309576e-07
1.19782116325e-07
3.54213639475e-07
7.34199683184e-08
3.00171362223e-07
2.85274076487e-08
3.5790063037e-07
3.6216956768e-07
2.49677024627e-10
-1.22611705823e-07
2.51599413138e-08
-1.40040473334e-07
3.96154439874e-08
-1.83667908254e-07
5.01583158744e-08
-1.69939087745e-07
4.95246173984e-08
-1.03692602664e-07
9.53821597885e-08
-1.29571004492e-07
1.38230584001e-07
-1.80684800065e-07
1.60735041766e-07
-1.88538974528e-07
1.88490369155e-07
-1.88590452731e-07
2.18153603328e-07
-1.85057664203e-07
2.40585478343e-07
-1.75549861499e-07
2.4144182718e-07
-1.41133830889e-07
2.51581360245e-07
-1.32309992748e-07
2.82657364807e-07
-1.47053766075e-07
3.3045233423e-07
-1.76793430947e-07
3.90011894994e-07
-2.11716077845e-07
4.45529734724e-07
-2.3415955979e-07
4.86759573725e-07
-2.44267840206e-07
5.2477252656e-07
-2.57898677821e-07
5.69831836692e-07
-2.77972841405e-07
6.16551557531e-07
-2.90515922896e-07
6.62847910866e-07
-2.94499304744e-07
7.10217063416e-07
-2.94913988921e-07
7.58760122874e-07
-2.94162572313e-07
8.07319996429e-07
-2.93311163136e-07
8.54196158556e-07
-2.923017379e-07
9.04496656783e-07
-2.96587372145e-07
9.5424567545e-07
-2.97822283286e-07
1.00493340826e-06
-2.98607759791e-07
1.05127504174e-06
-2.9509485388e-07
1.10184234837e-06
-2.98281096277e-07
1.15649471726e-06
-3.05464666364e-07
1.21353478288e-06
-3.14812593687e-07
1.28184733822e-06
-3.34018234999e-07
1.3504924554e-06
-3.46278762863e-07
1.4120190517e-06
-3.48282158235e-07
1.46916423235e-06
-3.42615487635e-07
1.5240217867e-06
-3.32750973418e-07
1.57686260087e-06
-3.20276463592e-07
1.62789469634e-06
-3.04998262149e-07
1.677560104e-06
-2.86729370583e-07
1.72528787875e-06
-2.6715921263e-07
1.7697126747e-06
-2.48451210883e-07
1.81010203353e-06
-2.31007210973e-07
1.8465688691e-06
-2.13875525437e-07
1.87941665868e-06
-1.96163610176e-07
1.9088183262e-06
-1.77439357901e-07
1.93476955836e-06
-1.57521524049e-07
1.95717030283e-06
-1.3629157542e-07
1.97581156457e-06
-1.1371488711e-07
1.99020508975e-06
-8.98380606428e-08
1.99974995066e-06
-6.4550956815e-08
2.00451689539e-06
-3.76298759541e-08
2.00511789567e-06
-9.56299194536e-09
2.00076014608e-06
1.86082515399e-08
1.98873439069e-06
4.7627762652e-08
1.9652884901e-06
8.07118894797e-08
1.92529180653e-06
1.2230355265e-07
1.8619515069e-06
1.78338334317e-07
1.76930956583e-06
2.56461814596e-07
1.64902848182e-06
3.63800533671e-07
1.52026139743e-06
4.97065074302e-07
1.42096992269e-06
6.22245391737e-07
1.3224542768e-06
7.60159304127e-07
1.20704104884e-06
7.96993744368e-07
1.10147629923e-06
6.93309938681e-07
9.78429970309e-07
6.36654181001e-07
8.57053322309e-07
6.00334369263e-07
7.55736477109e-07
5.92736020179e-07
6.57667043737e-07
6.46611569202e-07
5.52975797504e-07
6.97482103931e-07
4.63241470292e-07
6.55829577241e-07
3.67921216727e-07
6.11606801617e-07
2.71449515859e-07
5.86473347888e-07
1.84110509234e-07
5.58944911573e-07
1.28113492158e-07
4.97795309855e-07
8.38168134491e-08
3.9857649936e-07
4.39829451172e-08
3.40215761963e-07
1.84309752073e-08
3.83239861227e-07
3.80839940326e-07
8.42772858919e-09
-1.30976987774e-07
3.46532352585e-08
-1.66379023853e-07
4.45943503591e-08
-1.93651974408e-07
3.55188806761e-08
-1.60991840038e-07
5.36582589258e-08
-1.22088893812e-07
1.00954781842e-07
-1.77222042241e-07
1.23437475964e-07
-2.03530057659e-07
1.42247359876e-07
-2.07587677806e-07
1.62674439135e-07
-2.09216954742e-07
1.91509529622e-07
-2.13952301016e-07
1.94539660366e-07
-1.78582563991e-07
2.00398141372e-07
-1.47056614887e-07
2.29017836465e-07
-1.61076994473e-07
2.68130775139e-07
-1.86389393062e-07
3.23957983896e-07
-2.32856621316e-07
3.79434842575e-07
-2.67370542474e-07
4.18671121774e-07
-2.735176623e-07
4.54600373905e-07
-2.80295779138e-07
5.01111920531e-07
-3.04497701767e-07
5.49111725396e-07
-3.26043439475e-07
5.94719741529e-07
-3.36181698213e-07
6.40872080917e-07
-3.4069614295e-07
6.88546866486e-07
-3.42633723503e-07
7.35502776057e-07
-3.41144719809e-07
7.81815306655e-07
-3.39632544695e-07
8.29610022572e-07
-3.4010036288e-07
8.77973567387e-07
-3.44942297004e-07
9.28872360154e-07
-3.48702590482e-07
9.768889594e-07
-3.46590547043e-07
1.02450685203e-06
-3.42673803336e-07
1.08143161145e-06
-3.55172284688e-07
1.1412734177e-06
-3.65273083175e-07
1.20889747685e-06
-3.82408530004e-07
1.27811209051e-06
-4.03199259256e-07
1.34596920331e-06
-4.14087203364e-07
1.40722532511e-06
-4.09475189637e-07
1.46456905042e-06
-3.99885889241e-07
1.52023279462e-06
-3.88332483474e-07
1.57445614374e-06
-3.74411703066e-07
1.62702324592e-06
-3.57470731217e-07
1.67788341274e-06
-3.37488316864e-07
1.72652287442e-06
-3.15687671853e-07
1.77190894692e-06
-2.93716283094e-07
1.81331102036e-06
-2.72277243016e-07
1.85061100622e-06
-2.51035024432e-07
1.88396654184e-06
-2.29370127255e-07
1.9134919412e-06
-2.06809175354e-07
1.93917424938e-06
-1.83040578939e-07
1.96091777919e-06
-1.57865392577e-07
1.97855250855e-06
-1.3117319942e-07
1.99177328902e-06
-1.0288264762e-07
2.00025945404e-06
-7.28673882189e-08
2.00385603073e-06
-4.10749906743e-08
2.00202600132e-06
-7.6115632251e-09
1.99265277605e-06
2.80796109284e-08
1.97180322195e-06
6.85539320537e-08
1.93453502489e-06
1.18041278074e-07
1.87587470851e-06
1.80998271082e-07
1.79287291289e-06
2.61345741544e-07
1.68789860182e-06
3.61413687088e-07
1.57445017071e-06
4.77200079557e-07
1.47322594595e-06
5.9820051932e-07
1.37117981331e-06
7.24169643749e-07
1.26548503421e-06
8.65777363542e-07
1.11892972194e-06
9.43514881542e-07
1.00243610061e-06
8.09805578818e-07
9.08344045562e-07
7.30795358994e-07
7.98797613658e-07
7.09920123945e-07
6.8368297618e-07
7.07853298157e-07
5.72367305112e-07
7.57906950512e-07
4.83169715201e-07
7.86653795845e-07
3.95577962639e-07
7.43404865268e-07
2.92860961454e-07
7.14324855232e-07
1.98466706814e-07
6.808808872e-07
1.25917831358e-07
6.31517627163e-07
9.00629500078e-08
5.33708696161e-07
4.46755345661e-08
4.440163402e-07
9.19872179622e-09
3.75607826968e-07
4.7292157803e-09
3.8816354789e-07
3.8543657955e-07
1.52537779829e-08
-1.46680371105e-07
3.52177296798e-08
-1.86488064712e-07
3.89368663384e-08
-1.97581194851e-07
2.2667149307e-08
-1.44898107522e-07
5.47674527925e-08
-1.54457530324e-07
8.83746243448e-08
-2.11179129486e-07
1.05148804786e-07
-2.20553720103e-07
1.23174638487e-07
-2.25823462823e-07
1.31153286848e-07
-2.17264321242e-07
1.48418097799e-07
-2.31324761776e-07
1.4627140963e-07
-1.76510764256e-07
1.74799653633e-07
-1.75749472347e-07
2.07145239078e-07
-1.93653909038e-07
2.5540288556e-07
-2.34894887804e-07
3.09298546156e-07
-2.86983117284e-07
3.48491705755e-07
-3.06735216561e-07
3.80527419778e-07
-3.05669212714e-07
4.25856124932e-07
-3.25725866011e-07
4.75833199646e-07
-3.54563064579e-07
5.21971778548e-07
-3.72250345757e-07
5.67004410507e-07
-3.81268745602e-07
6.12884654184e-07
-3.86634002404e-07
6.61571684703e-07
-3.91355798506e-07
7.10138735956e-07
-3.89723711262e-07
7.54412352632e-07
-3.83925956777e-07
8.05189118323e-07
-3.90874629013e-07
8.52384911903e-07
-3.92128172695e-07
8.98931411093e-07
-3.9522951664e-07
9.46648461619e-07
-3.94283469495e-07
1.0112790092e-06
-4.07281458684e-07
1.07031556544e-06
-4.1418207407e-07
1.12977691691e-06
-4.24715909334e-07
1.20051722262e-06
-4.53122324984e-07
1.27383788654e-06
-4.76481710444e-07
1.33806443398e-06
-4.78261366617e-07
1.39889603447e-06
-4.70240997805e-07
1.45801878977e-06
-4.58932053051e-07
1.51562999718e-06
-4.45858370608e-07
1.57172647116e-06
-4.3041561974e-07
1.62609455246e-06
-4.11739505242e-07
1.67846257294e-06
-3.8974904187e-07
1.72831616891e-06
-3.65424081964e-07
1.77484427924e-06
-3.40115595889e-07
1.8173531139e-06
-3.14646238101e-07
1.85555467488e-06
-2.89085836149e-07
1.88942262231e-06
-2.63077509271e-07
1.91895379789e-06
-2.36169444295e-07
1.94409460135e-06
-2.08000338763e-07
1.96478758534e-06
-1.78367107104e-07
1.98097321736e-06
-1.47163225676e-07
1.99252594582e-06
-1.14240959878e-07
1.99918130079e-06
-7.93416571065e-08
2.00029230965e-06
-4.20312535304e-08
1.99410912031e-06
-1.31111753535e-09
1.97705118611e-06
4.52527537894e-08
1.94414528414e-06
1.0155598804e-07
1.89129625893e-06
1.7095197503e-07
1.81783795689e-06
2.5451857623e-07
1.72658550495e-06
3.52617516364e-07
1.62287762725e-06
4.65103629144e-07
1.51963869711e-06
5.80371871411e-07
1.42639588038e-06
6.91335940144e-07
1.34070365824e-06
8.09732193015e-07
1.27221633616e-06
9.34135759442e-07
1.14698812551e-06
1.06865354595e-06
9.43716684113e-07
1.01305948341e-06
8.11383936575e-07
8.63160618571e-07
7.01599261786e-07
8.19755879228e-07
5.91023910437e-07
8.18475599609e-07
5.0019730502e-07
8.48697285689e-07
4.24398966696e-07
8.6238888179e-07
3.22976798303e-07
8.44780677189e-07
2.14337780458e-07
8.2293985514e-07
1.26455681141e-07
7.68755732239e-07
7.18108522639e-08
6.86164757812e-07
3.26812416139e-08
5.72877432205e-07
-6.02626181005e-09
4.82797282858e-07
-3.50338198761e-08
4.04888036971e-07
-2.33108602594e-08
3.76175180519e-07
3.62400190354e-07
1.79045257569e-08
-1.64506067773e-07
2.90370732727e-08
-1.97757500158e-07
2.39770977964e-08
-1.92605146219e-07
2.55067762609e-08
-1.46631006285e-07
5.87737812215e-08
-1.87993543929e-07
7.10590272375e-08
-2.23712517848e-07
8.52610811412e-08
-2.34917527182e-07
1.02012954362e-07
-2.42698357751e-07
1.06159964173e-07
-2.21547315965e-07
1.15554458231e-07
-2.40810320307e-07
1.27972186959e-07
-1.8910483681e-07
1.54223586412e-07
-2.022283022e-07
1.87918334728e-07
-2.2762899774e-07
2.39120118427e-07
-2.86383488995e-07
2.84204457456e-07
-3.3227181458e-07
3.12765199483e-07
-3.35432961562e-07
3.48410223816e-07
-3.41437199308e-07
3.95844975698e-07
-3.73273702652e-07
4.43916496475e-07
-4.02724971582e-07
4.89968511628e-07
-4.18380796778e-07
5.35494161961e-07
-4.26874326864e-07
5.80121628449e-07
-4.31310858234e-07
6.25861781403e-07
-4.37110718274e-07
6.73168266667e-07
-4.3705211501e-07
7.17160924987e-07
-4.27918563376e-07
7.66162016242e-07
-4.39874419879e-07
8.17920332499e-07
-4.43885583001e-07
8.7278598229e-07
-4.50075445973e-07
9.30514227023e-07
-4.51989078143e-07
9.8740595535e-07
-4.64159123439e-07
1.04931817119e-06
-4.76089573289e-07
1.12507889824e-06
-5.00465073889e-07
1.19758873721e-06
-5.25610035369e-07
1.26292250277e-06
-5.41776136739e-07
1.32629340456e-06
-5.41574829982e-07
1.3887395065e-06
-5.32617268071e-07
1.45015915021e-06
-5.20272273991e-07
1.51015896349e-06
-5.05770480181e-07
1.56851897071e-06
-4.88679731507e-07
1.62501654097e-06
-4.68132758109e-07
1.67927631705e-06
-4.43894710304e-07
1.73073112182e-06
-4.16753535015e-07
1.77867358209e-06
-3.87921004029e-07
1.82245457342e-06
-3.58277569323e-07
1.86164151532e-06
-3.28110512912e-07
1.895988185e-06
-2.9724834374e-07
1.92532899786e-06
-2.65320214842e-07
1.94955698004e-06
-2.32023661599e-07
1.9686703141e-06
-1.97266577602e-07
1.98276203362e-06
-1.61036623546e-07
1.99186828637e-06
-1.23137787054e-07
1.99566647743e-06
-8.2950795701e-08
1.99289116958e-06
-3.91165787758e-08
1.9805832491e-06
1.11438951101e-08
1.953735285e-06
7.2219852527e-08
1.90721024058e-06
1.48192694646e-07
1.84076329282e-06
2.37556307798e-07
1.76075618981e-06
3.34604462924e-07
1.67112790535e-06
4.42296724697e-07
1.56681129355e-06
5.69401400145e-07
1.4597342074e-06
6.8737716482e-07
1.37057914715e-06
7.80363185281e-07
1.30351532928e-06
8.7663160176e-07
1.2527667493e-06
9.847096191e-07
1.2052681576e-06
1.11599917676e-06
1.00402195468e-06
1.21424232098e-06
7.35698289092e-07
1.13154298559e-06
6.14174970884e-07
9.41413682504e-07
5.24938546567e-07
9.07752481218e-07
4.50430127076e-07
9.23196423998e-07
3.64257609025e-07
9.485091091e-07
2.44717655417e-07
9.6427308164e-07
1.29649338084e-07
9.37976521014e-07
5.13274232008e-08
8.47046971427e-07
1.32626517904e-09
7.36214866192e-07
-4.74682321585e-08
6.21768264992e-07
-7.9941660074e-08
5.15374611192e-07
-8.99358720647e-08
4.1479354332e-07
-5.72166600332e-08
3.43984290218e-07
3.05043050611e-07
1.79212586569e-08
-1.82977609799e-07
2.59470880436e-08
-2.06058577608e-07
1.43006807304e-08
-1.81180157244e-07
2.50630589883e-08
-1.57564778957e-07
4.98724684672e-08
-2.13016372424e-07
5.33837229538e-08
-2.27355959292e-07
6.31997341964e-08
-2.44920016521e-07
7.20009124858e-08
-2.51591143695e-07
8.58853757106e-08
-2.35552445243e-07
8.07027569367e-08
-2.3581862071e-07
1.02599932015e-07
-2.11214212218e-07
1.31682907331e-07
-2.31592878311e-07
1.65402734202e-07
-2.61620540275e-07
2.09645242094e-07
-3.30884455738e-07
2.43928525658e-07
-3.66761633411e-07
2.67474936613e-07
-3.59128135727e-07
3.09424404064e-07
-3.83522729293e-07
3.584119355e-07
-4.22382514309e-07
4.05779815576e-07
-4.5019671595e-07
4.52930934286e-07
-4.65622603403e-07
5.00179636522e-07
-4.74179166012e-07
5.4628035166e-07
-4.77447502014e-07
5.88793139868e-07
-4.79670524713e-07
6.34399976822e-07
-4.82672025939e-07
6.84329754486e-07
-4.77851418386e-07
7.29815638951e-07
-4.85373669485e-07
7.79491634193e-07
-4.93542963243e-07
8.27475726291e-07
-4.98040677984e-07
8.92870699447e-07
-5.17377060853e-07
9.60141807303e-07
-5.31424762071e-07
1.03190917058e-06
-5.47860959324e-07
1.10429154101e-06
-5.72847611608e-07
1.1806045787e-06
-6.01904384918e-07
1.24848217234e-06
-6.09609587876e-07
1.31284745032e-06
-6.05880339195e-07
1.37712861186e-06
-5.96827501551e-07
1.44106860578e-06
-5.84131675494e-07
1.50378976436e-06
-5.68400889459e-07
1.56479206519e-06
-5.49581710425e-07
1.62378092008e-06
-5.27011009954e-07
1.68033054672e-06
-5.00323085927e-07
1.73382075635e-06
-4.70110987031e-07
1.7835495652e-06
-4.37503771525e-07
1.82885438788e-06
-4.03421600598e-07
1.86916297567e-06
-3.6824196835e-07
1.90397783537e-06
-3.31868220116e-07
1.93289854201e-06
-2.94027288283e-07
1.95572804635e-06
-2.54624913602e-07
1.9725497195e-06
-2.13849276799e-07
1.98365127531e-06
-1.71902010261e-07
1.98927453816e-06
-1.28538547881e-07
1.98907097177e-06
-8.25699893659e-08
1.98129360533e-06
-3.11903696853e-08
1.96187536402e-06
3.07062808062e-08
1.92467853933e-06
1.09601778745e-07
1.86481418505e-06
2.0825909231e-07
1.78823586661e-06
3.14203110312e-07
1.70987628863e-06
4.13205413702e-07
1.62698771727e-06
5.25283077861e-07
1.50637434156e-06
6.9000414237e-07
1.37573895252e-06
8.17787968859e-07
1.28754698993e-06
8.68232426939e-07
1.23476797491e-06
9.2905844707e-07
1.20710350058e-06
1.0120147133e-06
1.20055661513e-06
1.12223712994e-06
1.14580009407e-06
1.26883442484e-06
8.59789726302e-07
1.41754000177e-06
5.42642561212e-07
1.25864062146e-06
4.60730018025e-07
9.89784448843e-07
4.06129489974e-07
9.77784353459e-07
3.01229194761e-07
1.05330891564e-06
1.5826251049e-07
1.10709614219e-06
3.20569928707e-08
1.06403799206e-06
-3.07197724725e-08
9.09740130601e-07
-8.7112887479e-08
7.92614732328e-07
-1.45140037946e-07
6.79859201353e-07
-1.71820771137e-07
5.42272094083e-07
-1.49957355971e-07
3.93272464909e-07
-8.82278068105e-08
2.81949066004e-07
2.1708413947e-07
1.3762417438e-08
-1.9659079225e-07
1.90417734169e-08
-2.1137064179e-07
1.09160085611e-08
-1.73149522109e-07