/*--------------------------------*- C++ -*----------------------------------*\
| =========                 |                                                 |
| \\      /  F ield         | OpenFOAM: The Open Source CFD Toolbox           |
|  \\    /   O peration     | Version:  v1806                                 |
|   \\  /    A nd           | Web:      www.OpenFOAM.com                      |
|    \\/     M anipulation  |                                                 |
\*---------------------------------------------------------------------------*/
FoamFile
{
    version     2.0;
    format      ascii;
    class       volScalarField;
    location    "720";
    object      alpha;
}
// * * * * * * * * * * * * * * * * * * * * * * * * * * * * * * * * * * * * * //

dimensions      [0 0 -1 0 0 0 0];


internalField   nonuniform List<scalar> 
6400
(
0.897153290435
1.44499413633
2.29776420641
2.88199907623
3.43933294754
3.99456765154
4.68600920527
5.45786330142
5.93606152439
6.6556905306
7.93502214781
8.85804954691
9.64049014048
10.5093212478
11.5647256716
12.6744955915
13.6820937731
14.6310819706
15.433103127
15.9274999483
16.2136493894
16.6432078394
17.4158929622
18.5056883459
19.690830097
20.7676203171
21.6751761452
22.5219981881
23.4071829617
24.3460114276
25.2832814598
26.0319454406
26.5150475235
26.8487847433
27.0778180128
27.2062677109
27.50220375
28.0087000974
28.2130014407
28.2054400398
28.5582186372
29.3944817566
30.2272729433
30.7018731204
30.8603851665
30.7973950479
30.5788460739
30.2475596431
29.8166620695
29.3059581141
28.6353775045
27.5944579028
26.1943643783
24.5142174626
22.9844306066
21.6353133118
19.8256479661
17.3095143092
14.6769049552
12.4649471136
10.2240114276
7.87758478081
5.66972148256
5.58919843838
8.83432083775
13.4930522769
16.3377731293
15.9440084059
13.8881528426
12.2680198984
11.4386286843
11.7267656811
12.3699369011
12.3196816011
14.4884296409
13.968908468
15.913695524
9.81166064098
12.8577717078
4.80298809139
3.16439001999
2.54739241475
3.18264445484
4.45605993917
4.43468783101
4.41000127053
4.68661561266
5.18523564983
5.88401616779
6.76718741527
7.82284925208
8.87734790831
9.81691306109
10.7188655555
11.6415529894
12.6918328381
13.7974126258
14.8512831115
15.9169457919
16.2465320686
16.3540114473
16.7622330042
17.5143379175
18.5931021528
19.8947440222
20.9182306219
21.7976065194
22.6803157376
23.5795174221
24.4890390481
25.3989200362
26.2310790885
26.7083621026
27.0355332351
27.2949003003
27.3437026902
27.6831822357
28.2143054582
28.3764014352
28.2429680338
28.5681845689
29.8943857921
31.0008555108
31.38672883
31.489160085
31.354875432
31.0467061248
30.6533177861
30.0744699971
29.4099868353
28.8019085989
28.2379995537
27.0205289832
24.737435163
23.3139219937
21.7636367663
19.4433699222
16.9907204028
14.575600163
12.1808169741
9.94764236726
8.19243735854
6.06772849055
6.10408651588
9.07907129314
14.5757094445
18.1725535027
16.7804105388
14.5472059463
12.6011770265
11.9471298556
12.4523386772
13.6640985619
13.1368373786
13.0585635459
12.5953579547
11.4530117383
9.65195423277
8.13819976513
4.22002692125
3.28694404289
2.9123359302
3.43640383691
3.77078845881
4.37333247952
4.85461780727
4.87477696189
5.08062458379
5.78256955222
6.74128729612
7.8071493588
8.88124497896
9.86513460901
10.7688826006
11.5469034955
12.5031756775
15.0626584143
17.0643766359
17.5754864564
17.1530881627
16.1600006518
16.4544234559
17.6287060207
18.7568075476
19.828300979
20.9125057492
21.8913593786
22.7762763089
23.6553892966
24.5598417356
25.4380998397
26.3546209343
26.8260875865
26.9387145415
27.487185397
27.5537581608
27.6057971532
28.3082716524
28.5209689973
28.4528975419
28.7927596281
29.6083162727
30.4169721458
30.8929192964
31.0764131933
31.0547131216
30.8698948425
30.542059033
30.0743278702
29.4875939172
28.7807309583
27.840843683
26.5422083288
25.1249760904
23.6715319611
21.6715461351
19.3589950759
16.9742698927
14.5870626088
12.2675327022
10.1273637194
8.08474050543
6.68767915557
7.54522438797
11.5139764256
15.6304627801
17.6203604592
17.6245938808
15.994660354
14.3257210874
13.6806303553
13.6443611151
13.0251663043
12.4838564723
12.5335042836
12.2642864098
11.3421191988
9.74900005818
7.31568661457
7.51868832093
3.35458444232
5.5628335206
3.80639698965
3.96473142481
4.68732100477
11.9344828648
10.3521908287
5.6009207964
5.74461153472
6.7330975389
7.82842315595
8.9237455024
9.88287298949
10.7942389447
12.4714906637
14.544067851
16.2514244649
16.8021163184
16.0202684468
15.504379263
15.9723322542
16.6927901157
17.6197414069
18.7421668615
19.9086767491
21.0227641378
22.0273426947
22.8933198391
23.7886804234
24.628184537
25.6203943725
26.349915578
27.077855728
27.1768524451
27.0872243951
27.6265009247
27.7693938613
27.9370608953
28.309996874
28.6518434615
29.1029140744
29.7773506356
30.463920237
30.9353671894
31.1572577404
31.1714461245
31.0140218154
30.7065337011
30.2581316601
29.6752307924
28.9402333789
27.9908806101
26.7852101888
25.3802223103
23.7343338104
21.7181001313
19.4191496332
17.03297969
14.6775435074
12.4487373804
10.4629778074
8.90881041534
8.35265453874
9.10198597371
11.2668016178
16.1094827022
19.3671805263
19.4236838473
17.7031598785
15.3159790472
13.7136895118
12.9569134521
13.1843989205
14.6767599282
14.6699358935
13.394865039
13.3031398186
16.6362351284
13.0193853591
11.0213962096
5.78625257648
7.65259495373
4.63983170291
4.96027597629
6.722991312
11.831991009
8.408985086
6.12058469264
6.27201284451
6.95135037547
7.96801808857
9.07537329232
10.5107937317
12.7324964715
13.8030137696
14.3044150278
14.5161077167
14.5720947644
14.8740661189
15.5484587964
16.0978776975
16.7486306915
17.712506924
18.8402161654
20.0190149987
21.1601188526
22.1392792529
23.1160698037
23.8959452843
24.8963681986
25.6626815941
26.8984429506
27.0177098779
26.8577009028
27.1711400769
27.221395273
27.5495584836
28.0010522684
28.4553003254
28.8853838751
29.371056078
29.9705528493
30.5748917707
31.0307188101
31.2778122683
31.3240525917
31.1944256472
30.910236962
30.482899705
29.9122309028
29.1775276217
28.2392742011
27.0701967654
25.6597145303
23.9433636569
21.8755328856
19.5734033933
17.2237555008
14.97096753
12.9509769772
11.3369148896
10.3767444165
10.3389406099
10.5458813138
11.7880935627
15.8110591833
19.5317591115
20.7794301368
19.5467760574
16.740672914
14.2292784887
13.9118078551
16.234732248
17.1473871725
16.1470559934
15.2692801152
17.9811226382
21.0264875675
16.3077778283
15.4192374714
10.0674818334
9.24925578255
5.78500050567
6.29406201175
12.1212180678
11.6166651526
6.94048771288
6.74546810442
6.91530140973
7.3064994056
8.20194859378
10.761212901
13.8928352291
14.4067272554
14.1811554124
13.5010505837
13.404840607
13.9549615861
14.974787465
15.5119898196
16.0055001868
16.8204949905
17.8516670363
19.0055960784
20.1200553062
21.2687249735
22.4686976252
23.2187771179
24.3562855686
24.9513239561
26.3977290491
26.7104069924
27.5575745596
27.0450193529
26.6758031433
26.9915121527
27.5614393676
28.1329425643
28.6494905847
29.1300109714
29.6357892479
30.1967994715
30.7484888523
31.1867636879
31.4482233885
31.5208530492
31.4182831656
31.1602281541
30.7591699493
30.2122595749
29.4983571355
28.5837912294
27.4327939709
26.0022428448
24.2395782758
22.1607498169
19.9094894056
17.6754785838
15.6238812397
13.9209203717
12.7378655965
12.2834024734
12.6130989951
11.8739496946
13.7925384834
17.8944296016
20.9747055388
22.1348788723
21.1203151618
17.6895665829
15.4332042146
17.2269085246
19.4524908892
18.9461893755
17.9837245154
18.0954960975
22.7370970722
24.3502101907
19.3115013715
19.11555034
12.2045162132
9.18207824042
7.02931905169
6.58861038124
12.0934204645
8.64334268132
7.23121202663
7.36375696377
7.51729571944
8.23114089625
8.78291383238
13.5452065155
14.3118664298
14.4306227492
13.288845948
12.5716936909
13.0410971943
14.3987269002
14.9241223531
15.239981018
16.0164365442
16.9286015067
17.9629790244
19.1139031059
20.3908462894
21.6117650359
22.4946082461
23.9294745382
24.4488418204
25.9929330943
26.1758155326
27.2757855808
27.0850570025
26.8358088886
26.5372668085
26.961072116
27.6526818344
28.3035836717
28.8652146385
29.3827556073
29.9081238389
30.453583652
30.9753889337
31.4002860841
31.6708217087
31.7652005207
31.689663781
31.462436993
31.0960425769
30.5856010239
29.9075192969
29.0242940118
27.8886878598
26.4498069681
24.6837098679
22.6557853256
20.5323910061
18.5027128975
16.7178167416
15.3014326356
14.4033135258
14.0608203091
13.7926778411
13.7954046184
15.6640713644
20.7033891131
22.5593110474
22.6181158071
21.40669804
19.0404018939
18.6651199398
21.1614389975
21.5677633057
20.7455898198
20.1886278753
22.2308980462
25.0435428281
26.5484034648
21.9365687281
20.7963312391
11.9611398202
8.9216499067
8.19986058609
12.3059339857
12.2399815376
7.80758226544
7.9100810478
8.07677302566
8.17439869984
8.76909129705
13.2699809021
14.2389463818
14.4046558495
14.0307972941
12.2332064633
12.2070409147
13.7744385921
14.5136000869
14.5879613564
15.1178483533
16.049240293
17.0879449393
18.1554493325
19.3562840272
20.4860945959
21.9282933297
22.5736590378
23.9490230066
25.536383913
26.1354493432
25.9090586928
26.8085155386
27.1310467532
26.3896196213
26.5413486536
27.1107658855
27.8092741349
28.4891152344
29.0934780981
29.648222467
30.1957434763
30.7417210503
31.2508984507
31.6685833463
31.9464202344
32.0605109979
32.0139426215
31.8239868074
31.5022490211
31.0412018039
30.4129754425
29.5731865996
28.4679172482
27.0553457481
25.3486685091
23.4531562788
21.5383555372
19.7470572633
18.1525063273
16.8497307613
16.0150249673
15.6576510028
15.6027675872
15.9307908551
15.9774274634
21.2305380759
24.6056067713
24.2818063739
23.4739134179
22.3424097312
22.9613614635
24.1787286576
23.4248227843
22.7447255144
23.0056900669
25.4424952581
26.1865218457
26.8238459835
23.9422953618
21.7992606735
11.29545485
8.91957766031
8.88025234442
13.3072456687
11.3112901658
8.49222720929
8.64810884045
8.94757537067
10.0623828758
8.91190579046
14.0407458358
14.7815685894
14.4605570232
12.8967042833
11.9332739053
12.3429808859
13.8380157729
14.2552659571
14.4842104353
15.1340603936
16.0477230635
17.1544248974
18.315754243
19.8887133774
21.220089365
21.9015245594
23.8037046641
23.8765501342
25.6982337471
25.6791170162
26.8934509394
26.2422213743
26.1567893814
26.3227066917
26.717141986
27.3142021592
28.000269676
28.6918088411
29.334857725
29.9309044481
30.5057837422
31.062388312
31.5718472006
31.989823788
32.2760239945
32.4104743973
32.3972086115
32.2526125633
31.9864259662
31.5885688383
31.0269119192
30.2515818929
29.2095929907
27.8799126677
26.3137768307
24.6363732367
22.9723679253
21.3438048583
19.7439882791
18.4043419466
17.6922651493
17.6581874911
17.925907667
18.1060403798
17.9658348233
18.9603717314
25.0950028165
26.4440349357
26.0945028633
26.3843448701
27.1127830092
26.5075497674
25.3523184482
25.1402468388
26.2330900274
27.5652295221
27.5155935039
26.9713202496
25.9863171239
24.6300246997
10.8393726623
9.41649746438
10.0315003812
13.4024992743
9.50950984537
9.51858203635
9.39233886741
9.6709110047
12.6160417591
11.4123684426
14.8760302323
15.0728122682
14.5615629708
12.2944389196
11.9937529096
13.5435669435
14.0555223507
14.0292404342
14.449346267
15.2727163111
16.1704169684
17.2224049249
18.244815921
20.0262501063
22.1556057147
21.8555334751
23.7503050814
25.1227698004
25.9213463068
26.6754905875
26.275494777
26.4416615595
25.9076697842
26.2518391934
26.8859715127
27.5399525735
28.2193415359
28.9145040894
29.5894967636
30.2303859784
30.8417074896
31.4186725658
31.9375763073
32.3629480665
32.6618259864
32.8198432826
32.8454806878
32.7556407404
32.5573192745
32.2382084358
31.7645061968
31.0855838175
30.1576862005
28.9873386059
27.6545696931
26.2622274262
24.8049520957
23.1293256742
21.3614639017
20.1323630845
19.8935841965
20.393367723
20.8592070171
20.9110126624
20.5186070637
19.1482782643
18.6052896176
28.4193375832
30.876175481
31.3914641597
30.7496409687
28.869262982
27.6554936795
27.9057419906
29.234004755
29.7729954472
29.6974184867
29.5217490507
29.9333812782
30.1570700219
10.9012139702
10.3029727482
13.3730736222
13.6298150629
9.70588232725
10.3006286443
10.1360745101
10.5833817189
12.2103868916
14.8252915369
15.7389407453
15.3769634617
14.8435458853
12.3735305922
12.1644539891
14.0347770588
14.1734294817
14.0181185746
14.4706501163
15.3940937373
16.5035575796
17.5720661903
18.4104230089
19.6616781712
22.3129592297
23.5851393691
23.4346189519
25.2245310768
24.9503506433
26.6874891641
27.1786178747
26.4149285646
25.8950886038
26.3630098704
27.0825808056
27.7756783472
28.4624417671
29.162614426
29.8603946687
30.5452725052
31.2031886664
31.8118756126
32.3489930326
32.7884860112
33.1058221014
33.2938893275
33.3662642979
33.3406717757
33.222580105
32.9997015521
32.640646271
32.1011399509
31.3556167557
30.4390027224
29.4306391523
28.325625149
26.8953034473
24.9877730979
23.2563348758
22.5608857689
23.1470557433
24.2646691699
24.8652139411
24.7757841288
23.9862132016
22.2829133862
19.8286046324
19.9623649047
32.5203110511
37.2068694058
35.2636258102
31.9958905238
30.5403494494
30.9492462428
32.0302189107
32.7458520996
33.3793389427
34.0975379719
34.8014143355
35.5252816696
11.3265639833
11.2096175855
15.0366484398
14.405327152
12.5980076679
11.5490938906
11.11134127
12.0292604976
11.7682826957
15.7992670813
16.429957462
15.7612198825
14.9933984922
13.0454431659
12.9241505964
14.484441604
14.219784138
14.1141276359
14.5823496104
15.428361207
16.6312476819
18.0190807049
19.7305452547
19.7735068118
21.8237792191
23.9362350859
23.3549821433
25.4511963117
26.4269545771
25.98496632
26.3852624445
25.9078193516
26.1724078684
26.677972394
27.3351416775
28.0334933607
28.7335114731
29.443965623
30.1550421672
30.8727000354
31.5848081186
32.2431745259
32.8089364527
33.2678922462
33.6107330559
33.8381765067
33.9670298227
34.0151660582
33.9886292055
33.8793273034
33.6644108891
33.3173892213
32.8410599183
32.2826384224
31.6454137636
30.6841365042
29.1069745494
27.2694239059
26.0316943984
26.2326028359
27.9967345893
30.0355768727
30.8383427044
30.7588268738
29.8594205082
27.8687003011
24.7022973235
20.2919751718
28.0832888618
38.3774443857
40.5286478528
36.2310093756
34.3745800827
34.6435414085
35.697026308
36.7140818207
38.2553195831
39.3539496817
39.4292715401
39.7210514548
11.975819244
11.8886701951
14.8274049038
14.9437044615
14.9786179051
12.7332283472
12.2162883161
14.8266073744
12.2055859075
16.6659628693
16.9589021134
16.1539411478
15.1379431471
13.6996056456
15.3971639433
15.5258737472
14.4425484769
14.3477834042
14.8288306234
15.5587665097
16.580510157
18.0089051098
20.9370643472
21.9131938367
21.3470471817
23.9765206569
25.0202470549
25.0444134016
26.3810287604
26.9355180366
26.6876718169
25.9518506141
26.3723183244
26.9997521626
27.6426184972
28.3250993871
29.0243155502
29.7565360683
30.4965945008
31.2327387244
31.9826251135
32.7003419265
33.3156108114
33.8052475381
34.1806548799
34.4581379192
34.6551121336
34.7858551544
34.8585815977
34.875492367
34.833413584
34.7407482016
34.6337098426
34.5210932268
34.1829673179
33.088452497
31.834432749
31.4655708367
30.7742555466
31.8229930628
33.9194648743
34.2409873432
33.0507356628
31.6154960298
28.9742978769
25.6429040458
22.3020792443
15.4631338254
14.9790646592
30.8397095334
38.414765157
37.1547850331
32.2667836486
33.4056847601
36.9770380475
40.6774253915
43.6738062381
44.8583271
44.9613119658
45.2219499617
12.680649018
12.6198623046
12.2693953876
15.3029749129
15.5515360608
13.55310545
13.2068933368
15.850326655
12.9128003151
17.5686189111
17.4406721408
16.5608713976
15.3848412693
14.047014401
16.5436635
16.1467712676
14.9199432075
14.7619683751
15.1824218764
15.859015239
16.6527943311
17.8848809007
21.4132728179
22.9764445889
21.6866924696
23.9737993187
25.5153115404
24.6165222816
25.9985237916
26.5392105277
25.8980838498
26.2876699778
26.803215569
27.3731500587
27.9829276203
28.6668563792
29.3669241663
30.0847310664
30.8565990233
31.6416426645
32.4236032396
33.1856369989
33.8578447487
34.3966100098
34.8193599264
35.1604163785
35.4374263374
35.6556641367
35.8287521899
35.9765970418
36.1272336479
36.3546772279
36.7202908918
37.0898102173
36.7481444104
35.3559737137
35.8216614726
31.0714722019
26.411493203
21.1836152003
0.615648818593
0.000125024407395
4.33024754807e-07
4.41805578642e-08
3.5059888795e-09
9.87566331427e-10
1.16243987845e-08
1.1877265121e-07
1.34166251676e-06
3.5042986365e-06
0.00581916101858
1.52750129164
41.0744005831
46.3005599378
42.4786349698
42.4016731143
46.622071586
49.9653778372
51.7428680505
52.1610747552
13.5646215509
13.6609115739
15.9555964936
15.9829773603
16.0429007765
14.2545446707
14.2692725096
16.7417611584
13.9586695806
18.3606090948
17.9065361741
16.9937343844
15.7143766067
14.4635625721
16.8510820256
16.3985316623
15.3922300112
15.2383739532
15.5796440398
16.1805908306
16.8995391818
17.8823260681
20.8655223869
23.7773999503
23.9850696358
23.3946726772
25.7106571233
26.6195525478
25.0230439386
25.2128986873
25.839187585
26.5182500993
27.1561108901
27.7576036249
28.3789244532
29.0377448492
29.7428468785
30.480443388
31.2455001854
32.0708923692
32.9106845345
33.7182474712
34.4389496309
35.0337581828
35.5240748036
35.9480677713
36.3182953893
36.6305483023
36.8928880525
37.1482022704
37.5010624065
38.1102536195
39.0277913085
39.7945124871
39.0336751572
35.2998267308
23.5269481655
1.46843810906e-10
1.61512964275e-13
3.02779069456e-15
5.13231271751e-17
1.48490540816e-19
4.21977703349e-22
7.30435417565e-27
5.71348750772e-27
1.38710338291e-26
9.35017348829e-26
4.37956905924e-25
1.61781499663e-24
1.02809614792e-23
8.04976333596e-24
6.98360735146e-22
3.97483947184e-19
3.99556182918e-17
3.03195647566e-15
6.98186312043e-13
1.17526726616e-08
50.0670551638
57.0554199469
56.8501441438
14.3992295019
14.5922121608
17.5889252066
16.7006015814
16.2238349242
14.9564328608
15.2946791799
17.5090238373
17.4842569103
19.3486356582
18.4409456886
17.5231668017
16.1333472668
15.0218087968
17.1778529565
16.582920756
15.8391812049
15.7209894971
15.9866387242
16.5021012937
17.1816048652
18.103882139
20.3809030576
24.0268483316
25.3235247902
23.1841714456
25.2126503484
26.702057571
26.652582104
25.6080918852
25.9088480251
26.7287578124
27.5070459917
28.1827162216
28.7731049674
29.4393126125
30.1433031465
30.9030526565
31.6924291469
32.5369414322
33.4314811526
34.3023130518
35.0678949063
35.7064950385
36.2764315052
36.8332518114
37.339087385
37.7284061606
38.0029930344
38.329568513
38.9121254123
39.9165718796
41.4135513628
42.547212083
32.6518020711
6.12159455564
8.12032576969e-17
3.2883400623e-19
9.50934714975e-21
1.38438663102e-22
1.12478488283e-25
1.87681136688e-28
1.32297294581e-29
0
0
0
0
0
0
0
0
1.84002975431e-33
6.20603943138e-31
9.28291218072e-29
5.38564837023e-26
7.52242904417e-23
4.07358758612e-18
6.18623451178e-14
4.82302537972e-07
61.8612511021
15.0822632752
15.2970220961
19.711885465
17.2650468029
16.1663330792
15.5759226853
16.0367468648
17.6228192546
19.0730335832
20.479057547
19.1319596859
18.1890019542
16.8028664494
15.8662361356
17.7101797958
16.9163128763
16.3599755924
16.249523022
16.4325453565
16.8608825488
17.4667143617
18.3195768839
20.181670345
23.8945357074
26.3008720366
25.6249256763
24.7135755196
26.0666115005
26.4461502541
25.6698684444
26.3368916114
27.1771851479
28.0009676841
28.658260571
29.2697510053
29.87995372
30.5963554151
31.3572553368
32.1784561167
33.0538812334
33.983919572
34.9214441049
35.7705910494
36.4551096644
37.0993366397
37.8069441917
38.4699028308
38.909100329
39.153937545
39.5242147247
40.3069889554
41.5849235282
43.3795555026
33.1965002517
5.37736976941e-13
1.17563702459e-19
3.85557755845e-23
1.55903632758e-24
2.12569910049e-26
5.82924463724e-29
0
0
0
0
0
0
0
0
0
0
0
0
0
2.37087812826e-32
2.35598303069e-31
5.16482527136e-30
2.50435235473e-28
1.39072432822e-24
1.15758831868e-15
2.23143833425e-20
15.6134418969
15.8190008784
21.7450683623
17.7009458902
16.3429444583
16.1463942907
16.8435847434
17.0708027905
20.0185444675
21.2901565897
19.7985977161
18.8682148878
17.6651751263
17.7091175539
18.4538890947
17.4894161707
17.0736126857
16.9697826209
16.9864183994
17.305911628
17.8046571208
18.5764695848
20.1651228237
23.7390570432
26.7027630988
27.2455275783
24.6140714183
25.0814234211
25.3234959436
25.7729222196
26.6364019658
27.647451151
28.4814660812
29.1797632939
29.8142843461
30.4853117006
31.1157840824
31.8759517427
32.7085933879
33.5994511262
34.6007941885
35.6186177924
36.5344530517
37.215579942
37.8809533553
39.1181772956
40.6776576826
41.2773088839
40.7159112769
40.9092824898
41.793751655
43.1059789212
32.2896984512
6.22126086738e-14
9.37625508031e-19
4.20633545025e-30
4.25055408151e-27
6.93573288192e-29
0
0
0
0
0
0
0
0
0
0
0
0
0
0
0
0
0
0
3.6629323776e-31
2.48047730559e-30
4.57420580553e-28
97.286523853
16.0689791983
16.240580633
21.6075450896
17.206693827
16.5840171649
16.6388217497
17.7557453929
17.1240570259
20.8231709628
22.0408694368
20.4281075052
19.4954075153
18.3388806669
19.8776930522
19.4775412474
18.2635312339
17.8937655507
18.0323696285
17.761066169
17.9193266668
18.2416225085
18.8795109218
20.287847769
23.5725932167
26.5650503984
28.3275340317
27.1590325042
26.3318957749
26.1667415878
25.9992616335
26.9125571901
28.236981722
28.9324260554
29.711184064
30.5720359951
31.0944413728
31.7259709016
32.4944083554
33.3487261515
34.252789775
35.2299623015
36.3117727145
37.3650922989
38.3850571446
39.5263432134
41.0926407989
42.4179763182
42.6031570204
42.5987143846
43.1329315969
44.2671356524
35.8358811641
2.82918669406e-13
2.58248248246e-18
3.39421475619e-22
4.60999421447e-24
0
0
0
0
0
0
0
0
0
0
0
0
0
0
0
0
0
0
0
0
0
0
1.12707838765e-30
8.20348086736e-20
16.5832996659
16.7308393179
21.2739598868
16.9309885467
16.8986733327
17.0404871204
18.5420939177
17.6162232767
21.5321047472
22.7774109091
21.0503231458
20.1182506224
18.9010459903
20.6528440935
20.4247799603
19.1028442623
18.7010101296
18.938347819
18.684706855
18.7508407341
18.8748542205
19.2392042502
20.5706125204
23.5401971444
26.2770510071
28.6316326155
28.3382510947
26.906817899
25.728844667
26.4780876608
27.3905586541
28.681242598
29.7267054883
30.6373211527
31.3994524496
31.8146927984
32.4210225411
33.2021597749
34.0766414367
35.0192980648
36.0149403564
37.1800637634
38.5314098835
40.087207238
41.2188148323
41.8799804021
42.8050949095
43.5362598419
44.8430570192
46.4457384867
41.4001289975
2.57793925964e-12
3.42301118505e-18
5.9028072915e-22
1.21069617341e-24
2.93132832614e-26
9.83947418335e-29
0
0
0
0
0
0
0
0
0
0
0
0
0
0
0
0
0
0
0
0
0
1.89409313733e-31
2.50605822322e-31
17.3348020506
17.4819248736
20.9892052545
17.2433561486
17.4664774654
17.537006358
18.5931000656
18.3493311695
22.055423772
23.4791181547
21.7033139634
20.7859865118
19.5741613279
21.3538759979
21.2737741113
20.0211019031
19.5598881175
19.8179930808
19.5873257297
19.7254907293
19.772891962
19.7562340864
21.0464008313
23.7067506461
26.1361558313
28.7022692977
28.8905418896
27.6892509027
26.2519757135
26.7021306333
27.9652673875
28.8673071077
29.8013971967
30.9061844858
32.3080303398
32.8429267292
33.3664509766
34.0207005997
34.8607699779
35.8784406449
36.9855284242
38.2844326239
40.2316794589
41.9699812945
42.4511841876
42.9877537498
44.4237487278
47.45849036
50.9672219668
45.1443525773
7.36525275166e-13
1.22349779844e-19
5.06312000048e-24
1.66003088296e-27
1.04158035395e-29
2.11119896751e-29
3.24201381637e-30
0
0
0
0
0
0
0
0
0
0
0
0
0
0
0
0
0
0
0
0
0
1.39997982595e-32
6.35689702164e-32
18.4636419667
18.5734825593
21.3184954441
18.1918941658
18.6222132076
18.4002999776
18.9407757658
19.6520260832
22.1501915147
24.0165134489
22.4157462301
21.5207340157
20.3499021666
22.1503202528
22.1484493379
21.0942486633
20.5940610962
20.8368130314
20.4981089344
20.7942354825
20.9728354601
20.4918965756
21.6021921211
24.0760494209
26.1941262456
28.563241889
29.1381372295
28.3719039873
28.1774898602
27.5528842225
28.3499907839
29.6128905933
31.0976134696
31.5028367289
32.6034928935
33.860989436
34.4309759122
35.1432163615
35.8890172183
36.8268670007
38.0714980481
40.0672560888
42.6197000158
43.6514372826
43.7429156388
45.0832556402
49.4467887865
56.8102615279
51.2451608753
11.4307149956
1.85366520887e-21
1.7306492243e-26
1.18416725043e-28
0
0
0
0
0
0
0
0
0
0
0
0
0
0
0
0
0
0
0
0
0
0
0
0
0
0
0
20.034915758
19.9235359677
22.1676063865
20.0619216717
20.5550631655
19.6674553387
19.8985446048
21.5261537682
22.4081712403
24.6557412656
23.2388175351
22.3322812835
21.2032823403
22.9837353753
23.0188337677
22.2731881351
22.0884178487
22.1606065413
21.5024708415
21.9538694354
22.4625507884
21.5293859164
22.0508151942
24.5378925202
26.4589830129
28.4498866281
29.3066830778
28.5571424289
29.3599551599
29.1209953809
29.3864135024
29.3932802609
30.8952910207
32.6832357941
33.558794019
34.6185750004
35.4950918809
36.2439466861
37.1215762355
38.0828488808
39.7281672267
42.7391533266
44.9742392224
45.5183374109
46.2722820574
49.7640306879
57.3136778423
54.3866566971
28.8936259572
1.65424294647e-23
2.8919658255e-26
1.32419427798e-28
0
0
0
0
0
0
0
0
0
0
0
0
0
0
0
0
0
0
0
0
0
0
0
0
0
0
0
0
21.6931133933
21.1925408176
23.0781658982
22.5251424793
22.2601505307
21.1263753395
20.9483567171
22.6657201331
21.7411123005
25.1613415659
24.1546162317
23.2124214179
22.1238986217
23.8268280386
23.8277930036
23.2623546442
24.1240098836
23.7478188581
22.6251528979
23.2231362389
23.800747149
22.8497266322
22.2590423796
24.5536299069
26.6491198741
28.3737931162
29.3744229872
28.6497630671
29.7670419087
30.4038312327
30.7658197991
30.1776713378
31.113210707
32.654909685
34.4744091369
35.8336153736
36.7850968815
37.5089997623
38.370596839
39.7180206024
42.5221248901
45.7689260171
47.5439036759
48.5416466129
50.9124402158
55.991552114
52.044889048
29.807481092
4.45419243102e-23
6.44838329354e-26
2.25834822956e-28
0
0
0
0
0
0
0
0
0
0
0
0
0
0
0
0
0
0
0
0
0
0
0
0
0
0
0
0
0
22.5248206779
22.078499223
23.6620196552
23.5824716549
23.331386826
22.4983630749
22.139698501
24.0362957287
22.7954918734
25.7990061222
25.0807425673
24.1324615656
23.1066250243
24.6949423965
24.6407904326
24.0893456949
25.1079552226
24.8705567131
23.707596658
24.4614864692
24.563702597
23.6890609328
23.2635439325
23.4994631092
26.1488684158
27.8772280723
29.1599889388
28.6150110266
29.8424189682
30.9624657762
31.904966666
31.955314274
31.5256922049
32.7327546218
34.7219293914
36.7127395148
38.1881730436
39.1670598293
40.0249119172
42.385524148
45.9992027283
48.920147214
50.5165426742
52.4420697216
56.4182288251
52.6266554259
25.3727082935
2.35308508553e-22
2.11965973458e-25
6.03690066088e-28
0
0
0
0
0
0
0
0
0
0
0
0
0
0
0
0
0
0
0
0
0
0
0
0
0
0
0
0
0
0
22.6317872627
22.6249046721
24.0131596042
23.8156428324
24.0075833707
23.558296031
23.1735450376
25.3837403336
24.4631219944
26.6072794061
26.0607693422
25.0783001735
24.1467868938
25.6033932205
25.5170348945
25.0368692544
25.9296990268
25.8469318937
24.8285894627
25.4949164401
24.486872387
24.4600539705
24.3025850045
24.5622378427
25.3764663191
26.4392472984
28.3099731488
28.3738604598
29.4343841761
30.9965032845
32.3694080998
33.3088619067
33.0445722477
33.5326455985
34.9538725507
36.9299140457
39.1095471324
40.8934657757
42.4578348736
45.8312423478
49.4885067103
51.925057907
53.2162004903
55.0701011347
50.6106668435
32.5803517917
33.1257251773
7.36275618071e-25
1.64932625994e-27
0
0
0
0
0
0
0
0
0
0
0
0
0
0
0
0
0
0
0
0
0
0
0
0
0
0
0
0
0
0
0
22.880441914
23.0034985154
24.3064299847
22.9981719955
24.2989974211
24.1433044606
23.8652602279
26.0112682934
25.3233427927
27.4199953578
27.0670468478
26.0182985104
25.2497068902
26.5393317935
26.4312252863
26.1139322393
26.8477802396
26.9328341165
26.0751705871
26.9049666316
25.8358347839
26.0635139432
25.5663754077
25.8712618195
27.1341950469
27.769253914
27.9294343969
28.0579067343
28.9731698479
30.9092388732
32.3445203825
33.5557716639
34.3257061442
34.6276759731
36.2255628141
37.6610941724
39.8573540799
42.4880252903
45.4622159515
49.4952822442
52.777674617
54.4504177798
53.9727373511
50.6492062538
46.9135389593
29.4333365355
6.17828170716e-24
1.40651606269e-26
0
0
0
0
0
0
0
0
0
0
0
0
0
0
0
0
0
0
0
0
0
0
0
0
0
0
0
0
0
0
0
0
23.5625741932
23.6497947323
24.6170213759
23.394672808
24.5507098703
24.4656580818
24.3440594965
26.232286357
25.9147033185
28.0205861416
28.0385379483
26.8922154332
26.40001549
27.4547307848
27.3000916069
27.1531871252
27.732943693
28.0986677324
27.3680446917
28.3368708802
27.6022011186
28.0841127493
27.9179480272
26.9086391893
27.9401817725
28.8739900341
29.0616380058
27.8529817938
28.4450737975
30.7691142759
32.4444883148
33.2331747625
34.1602170753
34.946181595
36.6074656862
38.3160546525
40.710647888
44.0953215444
48.6466814451
53.2416540996
55.8316669246
56.0615537055
53.5623412838
48.2231918838
30.4277695104
30.6096435378
9.80115686541e-26
3.97439089954e-28
0
0
0
0
0
0
0
0
0
0
0
0
0
0
0
0
0
0
0
0
0
0
0
0
0
0
0
0
0
0
0
0
24.422938435
25.406738513
25.0699328474
24.3188076589
25.0646432712
24.8354532883
24.7941466125
26.4120404085
26.44216995
28.2779840913
28.9636657139
27.6594582183
27.4102152528
28.20136948
28.1040025309
27.9397050069
28.0925061891
29.1507756382
28.7091582798
29.5861805329
29.502100273
29.4352621249
29.3407815027
29.0005774226
28.3665317558
29.0801239354
29.9727812586
27.4029975665
27.9015175299
30.0734631149
32.4397204547
33.6937205145
34.7434864924
34.9152544786
36.4376246152
38.5226490074
41.2162493323
45.5799035249
51.8181109667
56.8293862704
58.3530781174
54.550081827
52.3713680444
51.4490408292
34.4248367152
6.64331303143e-25
1.69553327496e-27
0
0
0
0
0
0
0
0
0
0
0
0
0
0
0
0
0
0
0
0
0
0
0
0
0
0
0
0
0
0
0
0
0
25.0569824198
26.0814300433
25.7311059176
25.1396002559
25.7149617283
25.3590124494
25.2966614057
26.654990912
26.9408695375
28.2691969628
29.7707811839
28.3726599589
28.0177397876
28.8022120218
28.9442083814
28.6342435545
28.3716852714
29.8994805268
30.0584049403
30.6705864838
30.8263048486
31.0412904021
30.0178856426
30.0423289512
29.6078324821
30.6355980328
31.2619559897
28.9602358084
27.4063881482
29.0257773603
31.6660879714
33.7585634316
34.9526869079
35.3806820222
36.0247837769
38.1848529634
41.1004748
46.6914171799
54.8261688278
60.4393345985
59.4885062712