/*--------------------------------*- C++ -*----------------------------------*\
| =========                 |                                                 |
| \\      /  F ield         | OpenFOAM: The Open Source CFD Toolbox           |
|  \\    /   O peration     | Version:  v1806                                 |
|   \\  /    A nd           | Web:      www.OpenFOAM.com                      |
|    \\/     M anipulation  |                                                 |
\*---------------------------------------------------------------------------*/
FoamFile
{
    version     2.0;
    format      ascii;
    class       volScalarField;
    location    "631";
    object      pa;
}
// * * * * * * * * * * * * * * * * * * * * * * * * * * * * * * * * * * * * * //

dimensions      [0 2 -2 0 0 0 0];


internalField   nonuniform List<scalar> 
6400
(
-0.120507014563
-0.120508096253
-0.120511136418
-0.120517078987
-0.120525938099
-0.120537740434
-0.120552556348
-0.120570924163
-0.120593368528
-0.12062061234
-0.120655160738
-0.120698553452
-0.120750079998
-0.120810089658
-0.120879836969
-0.120960940846
-0.121054707894
-0.121161673808
-0.121281525368
-0.121412401409
-0.121552187575
-0.121702069092
-0.121866217739
-0.122049232518
-0.122254459098
-0.122482680473
-0.122732845449
-0.123004324727
-0.123297757735
-0.123614447728
-0.123955635299
-0.12432108153
-0.124707761206
-0.125112425215
-0.125533948906
-0.125970884881
-0.126423907986
-0.126898038538
-0.127392695735
-0.127901114882
-0.128424357691
-0.128973230195
-0.129553734991
-0.130159679602
-0.130782069716
-0.131414503544
-0.132051950529
-0.132690457724
-0.133326283728
-0.133956103216
-0.134577144444
-0.135183910883
-0.13576681337
-0.136313297064
-0.136820496209
-0.137293083726
-0.137725280543
-0.138103316817
-0.138420729508
-0.138684156841
-0.138898892053
-0.139066669205
-0.139184048887
-0.139278298478
-0.139390817395
-0.139561844375
-0.139783403573
-0.140006285402
-0.140193365796
-0.140341884731
-0.140461642267
-0.140563611367
-0.140654797034
-0.140733185107
-0.140801023027
-0.140858398431
-0.140904829865
-0.140934694218
-0.140953515394
-0.140961452948
-0.120505533921
-0.120506687098
-0.120509437726
-0.120515223356
-0.120524581259
-0.120536858388
-0.120551753795
-0.120569385746
-0.120590988477
-0.120618033236
-0.120652277342
-0.120695045178
-0.120746411549
-0.120806481099
-0.120875931085
-0.12095605319
-0.121049128669
-0.121155990774
-0.121276002796
-0.12140674476
-0.12154520759
-0.121693682279
-0.121857158495
-0.122039712362
-0.122244662186
-0.12247277083
-0.122722562455
-0.122993796829
-0.123287186356
-0.123603708356
-0.123944312714
-0.124309415715
-0.124696156719
-0.125100293847
-0.125521441323
-0.125958178763
-0.126410729974
-0.126884943899
-0.127380284297
-0.127889136533
-0.128411411522
-0.128960181802
-0.129543187565
-0.130151107148
-0.130774457048
-0.131408040818
-0.132046752837
-0.132686867489
-0.133324226434
-0.133954146334
-0.134573717463
-0.13518120923
-0.135769419892
-0.136318570271
-0.136827723399
-0.137303846551
-0.13773442293
-0.13810900685
-0.138426783245
-0.138690068751
-0.138901447896
-0.139069701828
-0.139191304433
-0.139290238114
-0.139406895397
-0.139578630802
-0.139803146207
-0.140025343037
-0.140210416154
-0.140357835415
-0.140476773851
-0.140578512992
-0.140670161507
-0.14074937829
-0.140815892023
-0.140870842042
-0.140913400155
-0.14094192977
-0.140960014287
-0.140966021548
-0.120501328163
-0.120503173462
-0.12050561748
-0.120510870263
-0.120519813781
-0.120533311407
-0.120549178774
-0.120566012672
-0.120586295918
-0.120612420271
-0.12064595345
-0.120687993457
-0.120738833957
-0.120798485995
-0.12086716533
-0.120944944433
-0.121035859564
-0.12114370909
-0.121264123469
-0.121393510682
-0.121529440521
-0.121674576335
-0.12183654383
-0.122019260803
-0.122223558956
-0.122450365767
-0.122699555332
-0.122970511168
-0.123263471857
-0.123579395026
-0.123919128494
-0.124283506073
-0.124670348891
-0.125072981671
-0.125492030246
-0.125929155883
-0.126381088615
-0.126853876147
-0.127349566408
-0.127860472036
-0.128387231208
-0.128939182113
-0.129521468835
-0.130128702992
-0.130752832644
-0.131387899092
-0.132028980426
-0.132671829925
-0.133312230616
-0.133946029587
-0.134569720806
-0.135178884404
-0.135764882096
-0.13631773702
-0.13683563494
-0.137314273871
-0.137743009156
-0.138116487151
-0.138434081717
-0.13869752571
-0.138910954038
-0.139078774379
-0.139204997022
-0.139315350791
-0.139446990651
-0.139627233864
-0.139843451524
-0.140057706469
-0.140242682736
-0.140391353462
-0.140511476994
-0.140613278933
-0.140701217136
-0.140775636448
-0.140839285819
-0.140891249604
-0.140929740466
-0.140955739917
-0.140971853236
-0.140977593243
-0.120495338216
-0.120497189915
-0.120499205743
-0.120503950241
-0.120511657436
-0.120524761983
-0.120544258994
-0.120560882859
-0.120579370503
-0.12060399429
-0.120636410373
-0.120677577766
-0.120727726668
-0.120786251056
-0.120853460476
-0.120931449191
-0.121022501595
-0.121127762998
-0.121243485457
-0.121366724744
-0.121499527326
-0.121645084119
-0.12180680501
-0.121988229525
-0.122191382709
-0.122417126372
-0.122665419294
-0.122935653584
-0.123227901448
-0.123542844578
-0.123881738464
-0.124245090936
-0.124630851932
-0.125033740173
-0.125449490628
-0.125883040063
-0.126336489625
-0.126808750668
-0.127302191524
-0.127815370402
-0.12834785176
-0.128904356168
-0.129488198842
-0.130096161976
-0.130721880813
-0.131359462144
-0.132003837525
-0.132650510671
-0.133295179362
-0.133933634781
-0.13456168754
-0.135174076079
-0.135763357197
-0.136321978694
-0.136844963395
-0.137325385916
-0.137754586067
-0.138128126084
-0.13844579233
-0.138709866159
-0.138924873538
-0.139097118721
-0.139237786724
-0.139369104075
-0.139512855683
-0.139688158365
-0.139901098141
-0.140113829364
-0.140298582212
-0.140447298234
-0.140564685103
-0.140659678476
-0.140740346927
-0.140813183908
-0.140876447994
-0.140924074558
-0.140956605879
-0.140980878734
-0.140997532056
-0.141004355126
-0.120485980826
-0.120486326246
-0.120488716347
-0.1204934047
-0.120501646248
-0.120513323635
-0.120530675503
-0.120548656988
-0.120567833366
-0.120592004576
-0.120623210918
-0.120663376531
-0.120712639577
-0.120771494599
-0.120839705653
-0.120916127985
-0.121002847963
-0.121101153938
-0.121210565178
-0.12133072817
-0.121462195393
-0.121606523229
-0.12176701643
-0.121947071692
-0.122148649884
-0.122372869006
-0.122619680915
-0.122888777216
-0.123180014579
-0.123493912817
-0.123831300666
-0.124194006702
-0.124579980813
-0.124978905228
-0.125391780434
-0.125822592581
-0.126273019415
-0.126745571163
-0.127240547174
-0.127756840328
-0.128294354079
-0.128855576472
-0.129442329393
-0.130052425863
-0.130680811973
-0.131321944292
-0.131970671388
-0.132622310082
-0.133272444929
-0.133916714367
-0.134550483429
-0.135168175155
-0.135762976718
-0.136327858332
-0.136856005818
-0.137339272208
-0.137770016615
-0.138144690825
-0.138463736421
-0.138730482904
-0.138951020004
-0.139134457118
-0.139295109311
-0.139447077728
-0.139598978355
-0.139774806721
-0.139983750899
-0.140193322514
-0.140376513031
-0.140522268041
-0.140632299243
-0.140719022109
-0.140798380148
-0.140873059411
-0.140932467802
-0.140973937506
-0.14100355543
-0.14102980901
-0.141045343941
-0.141050347052
-0.120469071121
-0.120468979232
-0.120472806891
-0.120477431184
-0.120486039372
-0.120497748271
-0.120513700844
-0.120531413
-0.120551519742
-0.120575668074
-0.120605306619
-0.120644257332
-0.120694645933
-0.120754446908
-0.120820385296
-0.120892825881
-0.120974077238
-0.121066742925
-0.121171620376
-0.12128828841
-0.121416552419
-0.121558532468
-0.121717281723
-0.121895651252
-0.12209536265
-0.122317231568
-0.122562148914
-0.122829588438
-0.123119578911
-0.123432205462
-0.123768421972
-0.124129033557
-0.124511514783
-0.124910330946
-0.12531851944
-0.125744199238
-0.126193276372
-0.12666683076
-0.127164071334
-0.127683951542
-0.128226364616
-0.12879259263
-0.129383431242
-0.129997089405
-0.130629394517
-0.131275218642
-0.13192943078
-0.132587228151
-0.133244087632
-0.133895498733
-0.134536562159
-0.135161545397
-0.135763750764
-0.136335820121
-0.136869751343
-0.137357043635
-0.137790994035
-0.138169022069
-0.138492533931
-0.138766175872
-0.13899759804
-0.139197504536
-0.139381103623
-0.139548487146
-0.13970933343
-0.139892320242
-0.140102675958
-0.14030679129
-0.140482492558
-0.140618208359
-0.140717843864
-0.140801957879
-0.14088509127
-0.140956925711
-0.141009582897
-0.14104580253
-0.141075691743
-0.141100118337
-0.141112346138
-0.141117180305
-0.120443600247
-0.120445333371
-0.120451454156
-0.120458036188
-0.120464693718
-0.120476132981
-0.120492297524
-0.120509914871
-0.120530304752
-0.120554313775
-0.120584231385
-0.120622058668
-0.120672444811
-0.120729774337
-0.120792015042
-0.120859753474
-0.120936557712
-0.121025468167
-0.121126469928
-0.121238143872
-0.121362292903
-0.121501546461
-0.121657832815
-0.121833609932
-0.122030835105
-0.122250852647
-0.122492208657
-0.122757416612
-0.12304600425
-0.123358290972
-0.123692324228
-0.124049120225
-0.124428320355
-0.124820921118
-0.12522611139
-0.12564937543
-0.126097869923
-0.126572632548
-0.127072407138
-0.127596068546
-0.128143423491
-0.128715042873
-0.129311008264
-0.129929603051
-0.130567179168
-0.131218968735
-0.131879927152
-0.132545207077
-0.133210213832
-0.133870323259
-0.134520451351
-0.135154673281
-0.135766036518
-0.136346601806
-0.136887699705
-0.137381040782
-0.137820985066
-0.138206087367
-0.138538754822
-0.138824518135
-0.139071982858
-0.139292510237
-0.139495053746
-0.139678625423
-0.139859703095
-0.14005225686
-0.140262216348
-0.140455299041
-0.140615169623
-0.140736698605
-0.140830771423
-0.140918756345
-0.141001640481
-0.141065993492
-0.14111141751
-0.141143894663
-0.141172578958
-0.141190723244
-0.141196860039
-0.141200237587
-0.120413868692
-0.120417323919
-0.120424077731
-0.120433136125
-0.120439739933
-0.120451461817
-0.120466397563
-0.120483942344
-0.120504722163
-0.120526539251
-0.120557458932
-0.12059663366
-0.120644076895
-0.12069767845
-0.120755541347
-0.120818444466
-0.120891958529
-0.1209776502
-0.121073505674
-0.121179857065
-0.121299537867
-0.121435201122
-0.121588312665
-0.121761480322
-0.121956039487
-0.122172581605
-0.122411694269
-0.122671188894
-0.122959027838
-0.123271441279
-0.123602520558
-0.123951959204
-0.124325707849
-0.124713424646
-0.125114602937
-0.125537647961
-0.125986623147
-0.126462611549
-0.126964894928
-0.12749245712
-0.128044936501
-0.128622426524
-0.129224508002
-0.129849375568
-0.130493643187
-0.131152808227
-0.131821947017
-0.132496232039
-0.133171037063
-0.133841647869
-0.134502811196
-0.135148329756
-0.135770824389
-0.136361811252
-0.136912425584
-0.137415034797
-0.137865183189
-0.138262182271
-0.138608641256
-0.138910049157
-0.139175389177
-0.139415364107
-0.139637748346
-0.139848244954
-0.14005039407
-0.140257393678
-0.14046130171
-0.140639722523
-0.140781478741
-0.140890431266
-0.14098242092
-0.141071541103
-0.141147466357
-0.141203033251
-0.141241206996
-0.14126942978
-0.141289135141
-0.141297108924
-0.141293919789
-0.141291808132
-0.120381592152
-0.120385945874
-0.120392400891
-0.120399245065
-0.120407536227
-0.120421437977
-0.120435464839
-0.120452398618
-0.120474289847
-0.120496179908
-0.120523482188
-0.12056299735
-0.120608753759
-0.120657866979
-0.120711494249
-0.12077160196
-0.120840925917
-0.12092169089
-0.121012194793
-0.12111361436
-0.121228556311
-0.121359506853
-0.121507870165
-0.121676996529
-0.121870453137
-0.12208195124
-0.122317738274
-0.122576190155
-0.122858322666
-0.123166275553
-0.12349498115
-0.123843078734
-0.124204871538
-0.12458545668
-0.124985532542
-0.125408939603
-0.125858651419
-0.126335943161
-0.126840717272
-0.127372277441
-0.127930158982
-0.128514085381
-0.129123259486
-0.129755725092
-0.130408180214
-0.13107628764
-0.131755258665
-0.132440334049
-0.133126880307
-0.133810099815
-0.134484561544
-0.135143762573
-0.135779881886
-0.136384109634
-0.136947815534
-0.137464302266
-0.137929901613
-0.138343379985
-0.138706100372
-0.139023857608
-0.139307485445
-0.1395688714
-0.139816129648
-0.140053590158
-0.14028022987
-0.140506253731
-0.140715862335
-0.140872357799
-0.140993105232
-0.141088728936
-0.141174923158
-0.141257686725
-0.141324196229
-0.141371426988
-0.141402000668
-0.141420153921
-0.141423173773
-0.141414633913
-0.141399209899
-0.141388891559
-0.120346432449
-0.120351249494
-0.120358349724
-0.12036404023
-0.12037263406
-0.120385727765
-0.120399136103
-0.120414733052
-0.120434650748
-0.120460083947
-0.120485851247
-0.120522547192
-0.120565792317
-0.120611112275
-0.120659895708
-0.120717408036
-0.120783650236
-0.120858434114
-0.120942626572
-0.121038730068
-0.121149036112
-0.12127525511
-0.121418353282
-0.121580608879
-0.121771078346
-0.12198139738
-0.122207467387
-0.122463523482
-0.122741175031
-0.123046024302
-0.123370324424
-0.123711753933
-0.124067846432
-0.124441253143
-0.124838905455
-0.125262438803
-0.125712965778
-0.126191651998
-0.126698927859
-0.127234559561
-0.127798151208
-0.128389154873
-0.129006434308
-0.129647845031
-0.130310077924
-0.130988889295
-0.131679614652
-0.132377589464
-0.133078187994
-0.133776524265
-0.13446700077
-0.135142833688
-0.135795900339
-0.136417359168
-0.13699916451
-0.13753542868
-0.138022144976
-0.138454489113
-0.138832379108
-0.139166258627
-0.139472505402
-0.139762134112
-0.140037918505
-0.140300640384
-0.14055209537
-0.140791406594
-0.141002681812
-0.141167577944
-0.141262681088
-0.141336693338
-0.141403697067
-0.141475135513
-0.141534712941
-0.141576294699
-0.141598311479
-0.141598783953
-0.141577814419
-0.141544868729
-0.141512708528
-0.141492352033
-0.120307094689
-0.120311445201
-0.120318594856
-0.120324963652
-0.120335458042
-0.12034560657
-0.120357710698
-0.120372231013
-0.120387396153
-0.120413055785
-0.120440008017
-0.120474061014
-0.12051434686
-0.120557150622
-0.120602311771
-0.120655364416
-0.12071755306
-0.120786808809
-0.120864711298
-0.120954448215
-0.121059213264
-0.121181004851
-0.121320976521
-0.12147598381
-0.121656015027
-0.121866066342
-0.122088637246
-0.122336532838
-0.122608500182
-0.122901537505
-0.12322343318
-0.123560191525
-0.123910251478
-0.124279168142
-0.124674462762
-0.125097445093
-0.125548517168
-0.126028620383
-0.126538447374
-0.127078209994
-0.127647794677
-0.128246544164
-0.128872993907
-0.129524761306
-0.130198481974
-0.130889983003
-0.13159471896
-0.132308111513
-0.133025532392
-0.13374202372
-0.134451862778
-0.135148117481
-0.135822588684
-0.13646672749
-0.137073178847
-0.137636159979
-0.138149209048
-0.138599084541
-0.138988222358
-0.139341007466
-0.139682351617
-0.140012910881
-0.140319360419
-0.140602267931
-0.140869639819
-0.141115494791
-0.14132850994
-0.14150781196
-0.141594515964
-0.141639989812
-0.141659762801
-0.141722453156
-0.141783906542
-0.141825660429
-0.141838458729
-0.141815357734
-0.141760744899
-0.141691006622
-0.141631849548
-0.1415960176
-0.12026262375
-0.120265689491
-0.120270322666
-0.120278575457
-0.12029101436
-0.12029970621
-0.120310623162
-0.120324867216
-0.120337134166
-0.120358532243
-0.120385412504
-0.12041719273
-0.120453945727
-0.120494309485
-0.120538341374
-0.12058687863
-0.120643366356
-0.120706604817
-0.120778290009
-0.12086105115
-0.120958170371
-0.121073016003
-0.121211287209
-0.121364895809
-0.121532775143
-0.121733816827
-0.121954022099
-0.122190766603
-0.122460079191
-0.122747891096
-0.123056922956
-0.123384721861
-0.123729793739
-0.124097277987
-0.124490855661
-0.124912793641
-0.125364035478
-0.125845503518
-0.126358000563
-0.126901998305
-0.127477791572
-0.128084915252
-0.128721651712
-0.129385277854
-0.130072341244
-0.130778775978
-0.131500168905
-0.132231989591
-0.13296957493
-0.13370792398
-0.134441325531
-0.135162916209
-0.135864753831
-0.136538781723
-0.137177830723
-0.137774439998
-0.138319950961
-0.138784491706
-0.139178300318
-0.13955491754
-0.139957852842
-0.140351363333
-0.14068570261
-0.140977861212
-0.141257869785
-0.141512457584
-0.141723424287
-0.141879962392
-0.141975306722
-0.141986592633
-0.141914343318
-0.141996515068
-0.142084896657
-0.142138637721
-0.142143879382
-0.14208948275
-0.141983684064
-0.141849076018
-0.141743317033
-0.141678180736
-0.120213229768
-0.120215088084
-0.120216454411
-0.120225219857
-0.120236291575
-0.120245637887
-0.120256088324
-0.120269703116
-0.120281676623
-0.120299481909
-0.120323722223
-0.120352348117
-0.120384980021
-0.120420891468
-0.120463333467
-0.120509289578
-0.1205604372
-0.120617487778
-0.12068284282
-0.120758651155
-0.120847261705
-0.120952123802
-0.121083023659
-0.121238497847
-0.12140062975
-0.12158624929
-0.121802846309
-0.122032047295
-0.122286691879
-0.122568707529
-0.122870549255
-0.123190822823
-0.123529597992
-0.123894207275
-0.124286086774
-0.124706896253
-0.125158006553
-0.125640604273
-0.126155873538
-0.126704438539
-0.127286748771
-0.127902749404
-0.12855081285
-0.129227886607
-0.12993032914
-0.130654229137
-0.131395363164
-0.132149192842
-0.132910942605
-0.133675645608
-0.134437859387
-0.135191210588
-0.135928386158
-0.136641477352
-0.137321049713
-0.137955155308
-0.138552326167
-0.139033763569
-0.139411154273
-0.139807818836
-0.140339273561
-0.140901994614
-0.141266934398
-0.14153455547
-0.141836392932
-0.142117104689
-0.142335103971
-0.142429251047
-0.142477748902
-0.142536147231
-0.142091509383
-0.142261543093
-0.142416361046
-0.14250833987
-0.142522591628
-0.142433443236
-0.142250561391
-0.142001499814
-0.141825802884
-0.141704568841
-0.12015960635
-0.120161456172
-0.120163686266
-0.120168287482
-0.120175923045
-0.120184966445
-0.120194867801
-0.120206564275
-0.120219504654
-0.120234263065
-0.120255115594
-0.120280026583
-0.120308380079
-0.120339300627
-0.120376319475
-0.120419546793
-0.12046679393
-0.120518465644
-0.120577482706
-0.120646244796
-0.120726631111
-0.12082102973
-0.120940253394
-0.121091899563
-0.121253976885
-0.121426009533
-0.121632869924
-0.121858087401
-0.122097801604
-0.122367014024
-0.122658580994
-0.122971144581
-0.123307072
-0.123668907398
-0.124058520815
-0.124477841984
-0.124928686524
-0.125412284279
-0.125930085787
-0.126483405218
-0.127072822677
-0.127698366682
-0.128358697585
-0.129050737422
-0.12977071964
-0.130514926279
-0.13127937864
-0.132059414484
-0.132849996557
-0.133646348681
-0.134443873664
-0.135237460116
-0.136020808389
-0.136784513802
-0.137509183141
-0.13817492268
-0.13890620138
-0.139461790518
-0.139699858772
-0.140032756568
-0.140817297786
-0.140970569858
-0.140978115892
-0.141032144201
-0.141162263095
-0.14130974713
-0.141459289353
-0.14155206491
-0.14146884799
-0.141244611235
-0.141536470202
-0.142712136004
-0.14319820037
-0.143341203931
-0.143314806198
-0.143120215493
-0.142764701752
-0.142130506115
-0.141844626409
-0.141608839494
-0.120101042632
-0.120102991484
-0.120107042618
-0.12010736195
-0.12011160296
-0.120119165984
-0.120127945356
-0.12013815697
-0.120152173678
-0.120162924991
-0.120179749181
-0.120200663724
-0.120224759467
-0.120251270578
-0.120282342047
-0.12032052148
-0.120362973835
-0.120409229006
-0.120461757896
-0.120523040231
-0.120595197858
-0.120680027901
-0.120785400274
-0.120926110755
-0.121088833668
-0.121252277035
-0.121441616001
-0.121663605513
-0.121898002285
-0.122148234254
-0.122426250183
-0.122730267067
-0.123061029284
-0.123419274542
-0.123806174219
-0.124223654869
-0.124673757591
-0.125158290204
-0.125678711912
-0.126236689478
-0.126833566466
-0.127469517254
-0.12814322149
-0.128851687355
-0.129591333635
-0.13035892362
-0.131150779472
-0.131961854613
-0.132786490744
-0.133620287666
-0.134460858152
-0.13530600558
-0.136150755037
-0.136980318787
-0.137738246126
-0.138352480778
-0.139472160141
-0.139464602476
-0.139430888943
-0.139454110889
-0.139667218354
-0.140002330778
-0.14008453284
-0.139958438915
-0.139723444695
-0.139449141793
-0.13919903027
-0.139001385298
-0.138814249612
-0.138606701776
-0.13856360555
-0.139060379667
-0.139788174144
-0.1405707675
-0.141230140978
-0.141571632275
-0.141626095209
-0.141897222007
-0.141913123696
-0.141315010084
-0.120036756415
-0.120038140105
-0.120040688355
-0.120040145339
-0.120042155559
-0.120048142386
-0.120054934605
-0.120062433542
-0.120076091484
-0.120084441059
-0.120097362456
-0.120114294651
-0.120134341627
-0.120156835432
-0.120182118831
-0.120213835021
-0.120250172571
-0.12029026724
-0.120335760777
-0.12038899248
-0.120452177089
-0.120527439375
-0.120620100053
-0.120745728875
-0.120902325308
-0.121064156435
-0.121234379984
-0.121438527994
-0.121668149654
-0.12191030817
-0.122174495565
-0.122467606534
-0.12279094755
-0.123144097491
-0.123527375935
-0.123942222903
-0.124391075074
-0.124876026694
-0.125399037122
-0.12596183701
-0.126566333473
-0.127213390448
-0.127901775473
-0.128628242208
-0.12938946597
-0.13018343919
-0.131007383909
-0.131855164044
-0.13271908482
-0.133595480508
-0.134487724213
-0.135399657061
-0.136330322919
-0.137264769281
-0.138074760417
-0.138499897037
-0.138794550867
-0.139010904368
-0.138995952812
-0.138826462633
-0.138688624988
-0.138622914994
-0.138382844886
-0.137888879566
-0.137222898196
-0.136485414308
-0.135779791993
-0.135163580104
-0.134623820948
-0.13411502782
-0.133781052583
-0.134019740212
-0.134828850005
-0.136040716736
-0.137419940394
-0.138712582318
-0.139675301211
-0.140072115445
-0.140107228138
-0.140002838542
-0.119967885409
-0.1199686254
-0.119970176055
-0.119968188644
-0.119968783337
-0.119972680136
-0.119976902895
-0.119980366672
-0.119990105322
-0.119997631632
-0.12000741287
-0.120020449268
-0.120036637769
-0.120055776193
-0.120074632121
-0.120099351495
-0.120128752401
-0.120161956104
-0.120199643438
-0.120244128887
-0.120297487232
-0.120362117137
-0.120442357639
-0.120551276518
-0.120694360864
-0.12085557229
-0.121014214165
-0.121196843175
-0.121408713943
-0.121641526172
-0.121895477637
-0.122179339723
-0.122494328561
-0.122840976447
-0.123219713633
-0.12363138611
-0.124078160457
-0.124562974678
-0.125088128785
-0.125655760747
-0.126268113501
-0.126926693984
-0.127630900908
-0.128377198515
-0.129162016363
-0.1299854409
-0.1308466195
-0.131736941565
-0.132644394639
-0.133566218434
-0.134517314658
-0.135513247505
-0.136561052589
-0.137726738395
-0.137813892123
-0.137974961004
-0.13824200635
-0.138432875102
-0.138359101256
-0.138031165359
-0.137586467216
-0.137037433999
-0.136328364251
-0.135464418889
-0.13450201522
-0.133498204219
-0.132503815718
-0.131526568882
-0.13054508834
-0.129597064979
-0.128830163583
-0.128482383107
-0.128740267468
-0.129642781176
-0.131139201316
-0.133088260151
-0.135063805496
-0.136442367414
-0.137685426791
-0.140140154536
-0.119895685683
-0.119895544292
-0.11989460667
-0.11989193422
-0.119892176088
-0.119893796626
-0.119895473903
-0.119895347976
-0.119900393866
-0.119904593686
-0.119910369799
-0.119918829154
-0.11993028912
-0.119945866214
-0.11995838679
-0.119975900307
-0.119997884728
-0.120023874719
-0.120053118707
-0.120088175075
-0.120130872961
-0.120183742269
-0.120250854687
-0.120342573245
-0.120467600892
-0.120620356633
-0.120776961432
-0.120942567243
-0.121133350943
-0.121348802436
-0.121589759051
-0.121862709681
-0.122167790708
-0.122506568457
-0.122879816817
-0.123287517708
-0.123731893136
-0.124215938844
-0.124742850955
-0.12531498579
-0.125935066779
-0.126605711695
-0.127327019139
-0.128095279151
-0.128904852034
-0.129757777357
-0.130660493087
-0.131603062367
-0.132559525291
-0.133521474879
-0.134530018267
-0.135614290097
-0.13681318861
-0.136979230327
-0.137229797885
-0.137563618811
-0.137785245504
-0.13771018834
-0.137319737395
-0.136665418541
-0.135826265674
-0.134806037795
-0.133622510446
-0.132324351719
-0.130959751854
-0.129564897632
-0.128167376476
-0.126770061821
-0.125372477708
-0.124044349181
-0.122959437168
-0.122254900159
-0.122083627914
-0.122583622152
-0.123868541973
-0.125978174647
-0.12846477808
-0.13039641811
-0.133203819196
-0.143521899092
-0.119821677342
-0.119820630301
-0.119816936403
-0.119813842989
-0.119813236193
-0.11981223796
-0.119810913925
-0.119808048372
-0.119807432718
-0.119806605811
-0.119807095227
-0.119809896825
-0.119815124468
-0.119824122954
-0.119831581181
-0.119842166996
-0.119856269915
-0.119874249611
-0.119894991586
-0.119920328852
-0.119951777615
-0.119991696811
-0.120044801249
-0.120118702343
-0.120222430441
-0.120357560965
-0.120508965894
-0.120663418226
-0.120835782423
-0.121033465814
-0.121257502944
-0.121515911345
-0.121809631134
-0.122138089144
-0.122504228533
-0.12290699217
-0.123347862549
-0.123830614495
-0.12435888626
-0.124935638503
-0.125563498425
-0.126245892758
-0.126984285302
-0.127775996798
-0.12861561419
-0.12950552466
-0.130453195876
-0.131443799053
-0.132450345731
-0.133438774395
-0.134491243685
-0.135657380092
-0.135812276758
-0.136116050873
-0.136781613405
-0.137119864461
-0.137060424721
-0.136577447624
-0.135739998526
-0.134629421401
-0.133308793982
-0.131796287133
-0.130128884213
-0.128351069306
-0.126499098914
-0.12459837258
-0.12266589493
-0.120703038128
-0.118713863605
-0.116761125874
-0.115006944922
-0.113629175764
-0.112706753538
-0.112356316617
-0.112753044057
-0.114125819835
-0.116230843576
-0.117578148813
-0.117572576313
-0.12155377941
-0.119746896207
-0.119745171343
-0.119739851403
-0.119736138159
-0.11973323771
-0.119728808459
-0.119723185451
-0.11971749042
-0.119710745793
-0.119703961943
-0.11969831971
-0.119694668562
-0.119692942433
-0.11969327283
-0.11969471167
-0.119698180032
-0.119703889139
-0.119712491926
-0.119723981658
-0.119739348841
-0.119759304544
-0.119785332221
-0.119823326634
-0.11987888916
-0.119960168556
-0.120072111722
-0.120206895612
-0.120350995046
-0.120507294218
-0.120687242555
-0.120895355678
-0.121135182029
-0.12141357321
-0.121730247985
-0.122088326329
-0.122485535784
-0.122921972712
-0.123402311714
-0.123930949794
-0.124511733794
-0.125147671561
-0.125842264347
-0.126599328358
-0.12741842036
-0.128294168115
-0.129223704949
-0.130215591679
-0.13126435975
-0.132348302706
-0.133309559006
-0.134375357864
-0.134553320675
-0.134819834734
-0.135690027843
-0.136349734737
-0.136354038664
-0.13584346067
-0.134861770162
-0.133508744341
-0.131866044792
-0.129992865037
-0.127919370057
-0.125681859021
-0.12330818566
-0.120817112744
-0.118220283384
-0.115525372192
-0.112733903345
-0.109853675342
-0.106934664942
-0.10410714714
-0.101542026262
-0.0992442548989
-0.0971597375762
-0.095393118922
-0.0943287854726
-0.0938247725169
-0.0900573835211
-0.0749220627765
-0.0561459707699
-0.119671421434
-0.11966911126
-0.119662774935
-0.119658221557
-0.119652482776
-0.119644085462
-0.119633632707
-0.119624118586
-0.119610270443
-0.119596963463
-0.119584639015
-0.119573916806
-0.119564844759
-0.119556657938
-0.119549631247
-0.119544874016
-0.119541509197
-0.119539656201
-0.11954005113
-0.119544352644
-0.119552233913
-0.119563574874
-0.119584880728
-0.119621453794
-0.119679896544
-0.119766270493
-0.119879451789
-0.120009460561
-0.120155079643
-0.120313874028
-0.120501765563
-0.120722687114
-0.120982213076
-0.121280141316
-0.121624696391
-0.122016287979
-0.1224485341
-0.122926172365
-0.123453868999
-0.124037092953
-0.124680745389
-0.125388940094
-0.126167208383
-0.127015319322
-0.127923061168
-0.12888874718
-0.129932680842
-0.13107362687
-0.132336731452
-0.133117560605
-0.133379498448
-0.133591587995
-0.134468825431
-0.135399140663
-0.135623682096
-0.135105217004
-0.134026232655
-0.132463970999
-0.13052409585
-0.128278355388
-0.125779071731
-0.12305783106
-0.120144399432
-0.117056796005
-0.113806455403
-0.110401017656
-0.106846943987
-0.103147822629
-0.09930858201
-0.0953496475741
-0.091323984096
-0.0872947429114
-0.0832039156035
-0.0787448561777
-0.073813027958
-0.0687478929799
-0.0629062790356
-0.0493930190471
-0.0123726533183
0.0419304951291
-0.119594486855
-0.119591563964
-0.119584631034
-0.119578992429
-0.119570181779
-0.119557641783
-0.119542810092
-0.119527940553
-0.119506484861
-0.119486288137
-0.119466558809
-0.119447974327
-0.11943077242
-0.119413438144
-0.119396594421
-0.119382362645
-0.119369352015
-0.119355748717
-0.119343340622
-0.119334882769
-0.119329251747
-0.119325044377
-0.119327659749
-0.11934430618
-0.119379599883
-0.119438877653
-0.119526288059
-0.119634299996
-0.119766007772
-0.11990968058
-0.120074595454
-0.120270048842
-0.120508784199
-0.120791061359
-0.121115648084
-0.121493307025
-0.121919617257
-0.122393817132
-0.122920967617
-0.123505861319
-0.124155540254
-0.124878452445
-0.125680166744
-0.126555046198
-0.12748652517
-0.128479160509
-0.129587180783
-0.130911903431
-0.13316764778
-0.132511278982
-0.132636921177
-0.133276838877
-0.134346268426
-0.134807193362
-0.134413160823
-0.133261511865
-0.131530628947
-0.129318614358
-0.126727226965
-0.123821436455
-0.120650297103
-0.117248158989
-0.113646222675
-0.109867068746
-0.105928446952
-0.101841899366
-0.0976105752903
-0.0932246653928
-0.0886599922212
-0.0838773137925
-0.0788151854692
-0.0733717204293
-0.067371644467
-0.060419257436
-0.052241749224
-0.0429457802102
-0.0307315725096
-0.00602134652269
0.0480285664087
0.116809253749
-0.119515025404
-0.119511443829
-0.119503830676
-0.119496727089
-0.119484306745
-0.119468028643
-0.11944888336
-0.119427413448
-0.119398978153
-0.119372154354
-0.119344373047
-0.119317070177
-0.119290805526
-0.119263308469
-0.119235363532
-0.119210042317
-0.119186515354
-0.119159657267
-0.11913327834
-0.119110387679
-0.119088701644
-0.11906844879
-0.119050999191
-0.119045649391
-0.119057372739
-0.11908905907
-0.11914760102
-0.119227914202
-0.119334805447
-0.119463927798
-0.119611129144
-0.119780809688
-0.119988118372
-0.120247251438
-0.120556275541
-0.120916283864
-0.121330855787
-0.12179805527
-0.12232212799
-0.122908694036
-0.123565268737
-0.124302774796
-0.125126286253
-0.126022549102
-0.12697190227
-0.127971131031
-0.129034277335
-0.130125146816
-0.130904712683
-0.131503422417
-0.131665754507
-0.133160219219
-0.133868874525
-0.13369603777
-0.132597494325
-0.13074277932
-0.128309479442
-0.125408477726
-0.12213887633
-0.118567654485
-0.114749565633
-0.110728316507
-0.106542533044
-0.102220629955
-0.0977798192057
-0.0932202065063
-0.0885193627518
-0.0836283606647
-0.0784731195189
-0.0729519466524
-0.0669094030433
-0.0600898942044