/*--------------------------------*- C++ -*----------------------------------*\
| =========                 |                                                 |
| \\      /  F ield         | OpenFOAM: The Open Source CFD Toolbox           |
|  \\    /   O peration     | Version:  v1806                                 |
|   \\  /    A nd           | Web:      www.OpenFOAM.com                      |
|    \\/     M anipulation  |                                                 |
\*---------------------------------------------------------------------------*/
FoamFile
{
    version     2.0;
    format      ascii;
    class       surfaceScalarField;
    location    "631";
    object      phia;
}
// * * * * * * * * * * * * * * * * * * * * * * * * * * * * * * * * * * * * * //

dimensions      [0 3 -1 0 0 0 0];
oriented        oriented;


internalField   nonuniform List<scalar> 
12640
(
8.25704853877e-08
-8.20221231447e-08
1.56640674091e-07
-7.3623887033e-08
2.21038454266e-07
-6.40570935326e-08
2.75594413215e-07
-5.42621937743e-08
3.1721900749e-07
-4.13538481612e-08
3.45509039596e-07
-2.80661697898e-08
3.68106801197e-07
-2.24015618088e-08
4.01205129733e-07
-3.29161339205e-08
4.45558760645e-07
-4.41763824242e-08
4.89137468073e-07
-4.341221009e-08
5.30841203321e-07
-4.15448460056e-08
5.75021242802e-07
-4.40288192389e-08
6.17627736168e-07
-4.24578071626e-08
6.56930057598e-07
-3.91610931635e-08
6.96014490107e-07
-3.89504204311e-08
7.40301065057e-07
-4.41658589561e-08
7.87062486599e-07
-4.66419004833e-08
8.31026902328e-07
-4.38467671635e-08
8.71509363776e-07
-4.0352924366e-08
9.12803798964e-07
-4.11556213028e-08
9.62692251572e-07
-4.97391567314e-08
1.02106464901e-06
-5.82219248365e-08
1.08163533453e-06
-6.04180787849e-08
1.14128422982e-06
-5.95015499644e-08
1.19902915132e-06
-5.75977231826e-08
1.25524740575e-06
-5.60741990986e-08
1.31133386546e-06
-5.59388581703e-08
1.36671934262e-06
-5.52394683549e-08
1.42065583597e-06
-5.37861015526e-08
1.47366562731e-06
-5.28607437589e-08
1.52737261358e-06
-5.35524435749e-08
1.58111492552e-06
-5.35872961801e-08
1.63399744826e-06
-5.2720946856e-08
1.68881078543e-06
-5.4646905765e-08
1.74537399977e-06
-5.638485232e-08
1.80281878535e-06
-5.72617449602e-08
1.86176557062e-06
-5.87534587931e-08
1.9200082604e-06
-5.80441926783e-08
1.97597998102e-06
-5.57619350745e-08
2.0305882405e-06
-5.43929925537e-08
2.0866638387e-06
-5.58528471651e-08
2.14000329657e-06
-5.31188146461e-08
2.18429402987e-06
-4.40648978974e-08
2.2223893552e-06
-3.78643873146e-08
2.25737900478e-06
-3.47465827076e-08
2.28875692283e-06
-3.11260075568e-08
2.31603270999e-06
-2.70088051271e-08
2.33799729178e-06
-2.16862535906e-08
2.35470104695e-06
-1.64081941244e-08
2.37020468778e-06
-1.51939616477e-08
2.38945456587e-06
-1.89178506899e-08
2.40623847548e-06
-1.64319657754e-08
2.40586542727e-06
7.55644633928e-10
2.39372628555e-06
1.25600726098e-08
2.3692390669e-06
2.4944812527e-08
2.32628010199e-06
4.34562898559e-08
2.28630692808e-06
4.05411462606e-08
2.25912853161e-06
2.78458895947e-08
2.22421684515e-06
3.57065320544e-08
2.18212102009e-06
4.30440204396e-08
2.15844741888e-06
2.48320648833e-08
2.12116481693e-06
3.87729931851e-08
1.98867238332e-06
1.3437288129e-07
1.77137835837e-06
2.18918323099e-07
1.58366772683e-06
1.88706765407e-07
1.45697333997e-06
1.27361642691e-07
1.34365302681e-06
1.13887174484e-07
1.23140594918e-06
1.12842498142e-07
1.11450525086e-06
1.1757029164e-07
9.87828857391e-07
1.27418198714e-07
8.586040946e-07
1.29988164932e-07
7.35231277015e-07
1.24094631957e-07
6.19677374962e-07
1.16232840978e-07
4.98989338583e-07
1.21340482873e-07
3.95361170077e-07
1.04226725999e-07
3.04975222154e-07
9.09469929664e-08
2.40400597314e-07
6.51437013698e-08
1.67825025807e-07
7.31540224962e-08
1.02062808803e-07
6.6641394131e-08
1.02696594316e-07
4.37899117475e-08
-1.25506775197e-07
1.0092205449e-07
-1.30415238968e-07
1.5638700442e-07
-1.19237813576e-07
2.13388936233e-07
-1.11016901143e-07
2.83861168292e-07
-1.11601676474e-07
3.38323955261e-07
-8.22948743565e-08
3.73343938553e-07
-5.72076804574e-08
4.09403451773e-07
-6.87690330967e-08
4.49451890172e-07
-8.4037549216e-08
4.93031766476e-07
-8.68098722829e-08
5.36319897519e-07
-8.46710994735e-08
5.75543420499e-07
-8.30908371329e-08
6.13646597966e-07
-8.0416812483e-08
6.52545638911e-07
-7.79207441287e-08
6.92991008117e-07
-7.92742464553e-08
7.38668990057e-07
-8.97180271166e-08
7.83381352701e-07
-9.12413005576e-08
8.18111210072e-07
-7.84491454422e-08
8.5273097441e-07
-7.4844900121e-08
8.97461114724e-07
-8.57382653574e-08
9.53333209198e-07
-1.05460258733e-07
1.01766729526e-06
-1.22393887739e-07
1.08132854896e-06
-1.23929066562e-07
1.13880593182e-06
-1.16822901634e-07
1.19489522462e-06
-1.13542287058e-07
1.2529705944e-06
-1.13996367761e-07
1.30944552499e-06
-1.12268807419e-07
1.36390087253e-06
-1.09539533373e-07
1.41772074758e-06
-1.07458055228e-07
1.47121383152e-06
-1.06195209285e-07
1.52393912539e-06
-1.0612608604e-07
1.57606894411e-06
-1.05555110103e-07
1.62735720744e-06
-1.03848457403e-07
1.68143328393e-06
-1.08546892588e-07
1.74035295359e-06
-1.15130020508e-07
1.79853079897e-06
-1.15245237952e-07
1.85670609814e-06
-1.16734510068e-07
1.91783850069e-06
-1.18968753338e-07
1.9801762073e-06
-1.17890935022e-07
2.03738164373e-06
-1.11372477279e-07
2.07614576719e-06
-9.43959078212e-08
2.1028658072e-06
-7.96114567224e-08
2.13699476014e-06
-7.7970633511e-08
2.17751620646e-06
-7.81476804683e-08
2.21782217685e-06
-7.48109367776e-08
2.25658371482e-06
-6.96278885577e-08
2.29169916846e-06
-6.18576875722e-08
2.32308408673e-06
-5.27846964511e-08
2.3496210027e-06
-4.26475965261e-08
2.36463844396e-06
-2.98918154403e-08
2.36239264103e-06
-1.63400460623e-08
2.35627539522e-06
-9.95919193591e-09
2.37270419887e-06
-1.52885360887e-08
2.38516102554e-06
5.3090459652e-10
2.37247892545e-06
3.80890090499e-08
2.36202381226e-06
5.44277750353e-08
2.35113122203e-06
5.20283168597e-08
2.32771677396e-06
5.1958418419e-08
2.30417701056e-06
6.00723008346e-08
2.27421395531e-06
7.40029890757e-08
2.1911248823e-06
1.09111475494e-07
2.09574837779e-06
1.35622574182e-07
1.95899084742e-06
2.72897671497e-07
1.75622765187e-06
4.23156228043e-07
1.54419864558e-06
4.016729716e-07
1.35956195135e-06
3.12625252398e-07
1.25025948816e-06
2.23740925602e-07
1.17218963114e-06
1.91496642868e-07
1.07749513255e-06
2.1292171948e-07
9.58079913111e-07
2.47552032342e-07
8.23556825426e-07
2.65237670419e-07
6.91391971556e-07
2.5693929183e-07
5.82745602489e-07
2.25533046757e-07
5.01505468561e-07
2.03247082805e-07
4.22312561966e-07
1.8407326692e-07
3.48490654194e-07
1.6541431663e-07
2.7015844053e-07
1.44148569326e-07
1.99206703388e-07
1.44857375975e-07
1.04652120382e-07
1.62079525014e-07
2.08054873081e-07
5.50227243115e-08
-1.80254414073e-07
8.33159748663e-08
-1.58425177818e-07
1.49060938994e-07
-1.84700360953e-07
2.24750626813e-07
-1.86452932878e-07
2.94533844207e-07
-1.81153168339e-07
3.31547227059e-07
-1.1911720049e-07
3.53654154053e-07
-7.91107262718e-08
3.92988771914e-07
-1.07874854948e-07
4.38466146059e-07
-1.29299281331e-07
4.83880015559e-07
-1.3203262365e-07
5.27830312536e-07
-1.28444890091e-07
5.67925414682e-07
-1.23033371661e-07
6.0580514948e-07
-1.18160459954e-07
6.45196637147e-07
-1.17187055756e-07
6.81471548153e-07
-1.15427868661e-07
6.95505625072e-07
-1.03636356464e-07
6.9582758026e-07
-9.14460440336e-08
7.18396727007e-07
-1.00898873341e-07
7.74289292767e-07
-1.30602153758e-07
8.60040639223e-07
-1.71341317429e-07
9.48624720357e-07
-1.93885026493e-07
1.01520534658e-06
-1.88818125177e-07
1.07188756255e-06
-1.80454896285e-07
1.13175525851e-06
-1.76539911605e-07
1.19124598048e-06
-1.72880754667e-07
1.24703355548e-06
-1.69635502861e-07
1.30155057427e-06
-1.66633448509e-07
1.35603404069e-06
-1.6387244605e-07
1.40989274622e-06
-1.6116146601e-07
1.46365140441e-06
-1.59800441485e-07
1.51545894287e-06
-1.57775784659e-07
1.56701392235e-06
-1.5695034101e-07
1.62045899697e-06
-1.57127644625e-07
1.67001240119e-06
-1.57928050359e-07
1.72482650324e-06
-1.69758172552e-07
1.79056288378e-06
-1.80790271525e-07
1.85118500025e-06
-1.77154337373e-07
1.90944854525e-06
-1.77025855839e-07
1.97409868757e-06
-1.82324235702e-07
2.03598643995e-06
-1.73039358542e-07
2.09162049046e-06
-1.49801859829e-07
2.14172590429e-06
-1.29488197337e-07
2.18476882671e-06
-1.20777804931e-07
2.22312070071e-06
-1.16259389816e-07
2.2583910557e-06
-1.09829775487e-07
2.28999992894e-06
-1.00976871165e-07
2.3182208712e-06
-8.98045311116e-08
2.34269998183e-06
-7.69781024381e-08
2.36289923903e-06
-6.25441279739e-08
2.3796015501e-06
-4.62764465132e-08
2.39397970837e-06
-3.03794576621e-08
2.40281137626e-06
-1.84300457634e-08
2.39453112047e-06
-6.61798998586e-09
2.37753145958e-06
1.79511628621e-08
2.37164843137e-06
4.44329935541e-08
2.36767396461e-06
5.89205249167e-08
2.35160226711e-06
6.86969266462e-08
2.32495425349e-06
7.92939178352e-08
2.29175039001e-06
9.40939237409e-08
2.24741642609e-06
1.19297966515e-07
2.19239728252e-06
1.65287780787e-07
2.06772274143e-06
2.61691969375e-07
1.8339613857e-06
5.08134174959e-07
1.55878580641e-06
6.99505004892e-07
1.367723473e-06
5.93528114781e-07
1.28758057748e-06
3.93367355009e-07
1.19723035769e-06
3.14625472467e-07
1.08820437463e-06
3.01062414615e-07
9.73774583252e-07
3.27937503295e-07
8.51260365329e-07
3.70699953386e-07
7.36685490081e-07
3.80459387348e-07
6.49306345161e-07
3.4497229347e-07
5.75110260573e-07
3.00396947569e-07
4.99786492817e-07
2.79228904639e-07
4.11640916472e-07
2.72861120295e-07
3.22302298174e-07
2.55401193059e-07
2.45400402808e-07
2.21679883486e-07
1.86229653012e-07
2.04653538888e-07
8.08805291458e-08
2.68395191033e-07
2.89202034919e-07
3.80888666114e-08
-2.18087827996e-07
5.15037394942e-08
-1.71642431194e-07
1.24696607253e-07
-2.57637021353e-07
1.85738735855e-07
-2.47261752929e-07
1.92309650721e-07
-1.87547017186e-07
1.72073919152e-07
-9.8779208692e-08
2.38612905387e-07
-1.45486249485e-07
3.42716953701e-07
-2.11737286353e-07
4.14113373599e-07
-2.00469241799e-07
4.66724291819e-07
-1.84442931591e-07
5.14507211229e-07
-1.7606017954e-07
5.5745945002e-07
-1.65841570724e-07
5.92455246276e-07
-1.53027803371e-07
6.05805598475e-07
-1.30422349362e-07
6.02195699994e-07
-1.11705161337e-07
6.11983636589e-07
-1.13303795157e-07
6.55656273703e-07
-1.34991723434e-07
7.32038006889e-07
-1.77140875609e-07
8.22863683054e-07
-2.21277394704e-07
8.95290895064e-07
-2.43612493754e-07
9.49087677176e-07
-2.47525778975e-07
1.00615507912e-06
-2.4572733826e-07
1.06605684331e-06
-2.40201845911e-07
1.12355844797e-06
-2.33887614229e-07
1.17945699726e-06
-2.28629281598e-07
1.23435961788e-06
-2.24386733392e-07
1.28953177562e-06
-2.21655600095e-07
1.34417583938e-06
-2.18362380284e-07
1.39870630922e-06
-2.15538315498e-07
1.45130559605e-06
-2.12243461431e-07
1.50482351125e-06
-2.11136455344e-07
1.55444863848e-06
-2.06415541716e-07
1.60190524715e-06
-2.04416159301e-07
1.66314110848e-06
-2.18983242125e-07
1.72456468263e-06
-2.30993951342e-07
1.78521549877e-06
-2.4124318106e-07
1.85837154647e-06
-2.50105171733e-07
1.92859911782e-06
-2.4704047826e-07
1.9853523039e-06
-2.38860877072e-07
2.03677349209e-06
-2.24236435965e-07
2.08899045406e-06
-2.01790616018e-07
2.13980322977e-06
-1.80067280943e-07
2.18496015455e-06
-1.65698102307e-07
2.22451465431e-06
-1.55569774047e-07
2.25989205535e-06
-1.44956065497e-07
2.29149088835e-06
-1.32313420876e-07
2.31949118306e-06
-1.17532096279e-07
2.34370830062e-06
-1.00908322681e-07
2.36396453774e-06
-8.24997777309e-08
2.38049374576e-06
-6.24874969166e-08
2.39266785199e-06
-4.22179482798e-08
2.39732270454e-06
-2.27259316007e-08
2.39214739726e-06
-1.05899671898e-09
2.38418311794e-06
2.63320667535e-08
2.37637611816e-06
5.26975457481e-08
2.36306736108e-06
7.27426136188e-08
2.34121723195e-06
9.11269928002e-08
2.30865500215e-06
1.12537896826e-07
2.26111363465e-06
1.42405061238e-07
2.18928981023e-06
1.92037214427e-07
2.07413787762e-06
2.81482806005e-07
1.89221686694e-06
4.44761136641e-07
1.71070229304e-06
6.90768230007e-07
1.54453850284e-06
8.66646498728e-07
1.35455478721e-06
7.84292597939e-07
1.19626110888e-06
5.52229881302e-07
1.08150119351e-06
4.29872792597e-07
9.85171023367e-07
3.97877528649e-07
8.95486957297e-07
4.18140059235e-07
8.0281003328e-07
4.63951252227e-07
7.0489798051e-07
4.79000133265e-07
6.09883097564e-07
4.40630519428e-07
5.15234076689e-07
3.95642641951e-07
4.21978323355e-07
3.73035667529e-07
3.35079628544e-07
3.60310793609e-07
2.44554552567e-07
3.46485091919e-07
1.63907311705e-07
3.02827707953e-07
1.10712646826e-07
2.58316655519e-07
5.7013448315e-08
3.22438493625e-07
3.46562775679e-07
6.56670050583e-09
-2.24517103029e-07
4.4221465435e-08
-2.09136784937e-07
1.01749180574e-07
-3.14953934425e-07
1.44999517683e-07
-2.90327981891e-07
1.37308998542e-07
-1.79725800913e-07
1.75049345078e-07
-1.36392013755e-07
2.60187036049e-07
-2.30427064598e-07
3.25146352903e-07
-2.7647318075e-07
3.82818492045e-07
-2.57923275819e-07
4.3861387565e-07
-2.4004812735e-07
4.92207202981e-07
-2.29496336872e-07
5.25221850083e-07
-1.98722972844e-07
5.27265114281e-07
-1.5496045086e-07
5.29132926136e-07
-1.32177504313e-07
5.61469871457e-07
-1.43913828998e-07
6.23457698808e-07
-1.75150540493e-07
7.04423645776e-07
-2.15806278225e-07
7.80662167923e-07
-2.53223472671e-07
8.34605720641e-07
-2.75066461496e-07
8.80770915342e-07
-2.89623710054e-07
9.35439256999e-07
-3.0203751865e-07
9.94005415234e-07
-3.04136868716e-07
1.05196797731e-06
-2.98008792682e-07
1.10821018431e-06
-2.89977594909e-07
1.16338898982e-06
-2.83656431529e-07
1.21889784093e-06
-2.79745925198e-07
1.27307883647e-06
-2.75683486218e-07
1.32842838085e-06
-2.7355902497e-07
1.38136032371e-06
-2.68316423741e-07
1.43449548936e-06
-2.65223264804e-07
1.48245064153e-06
-2.5893402046e-07
1.53653626836e-06
-2.60337194441e-07
1.60086386853e-06
-2.68570196686e-07
1.6594275275e-06
-2.77361126918e-07
1.7257037214e-06
-2.97073414858e-07
1.80003733522e-06
-3.15372936325e-07
1.86678166689e-06
-3.16640094486e-07
1.92764714288e-06
-3.07692604528e-07
1.9833682811e-06
-2.94362481999e-07
2.03597399731e-06
-2.76617357076e-07
2.08832274369e-06
-2.53908468262e-07
2.13922619084e-06
-2.30735823086e-07
2.18547541865e-06
-2.11707071877e-07
2.22618133211e-06
-1.96030239196e-07
2.26213503769e-06
-1.80656325085e-07
2.29394905858e-06
-1.63865458734e-07
2.3218626576e-06
-1.45172531407e-07
2.34579327741e-06
-1.24554023324e-07
2.36556321546e-06
-1.01970362643e-07
2.38094202792e-06
-7.75521203901e-08
2.39095050344e-06
-5.18929276072e-08
2.39372705563e-06
-2.51506697812e-08
2.38914846517e-06
3.89843553303e-09
2.38066521045e-06
3.52235134783e-08
2.36881673909e-06
6.49930745485e-08
2.34972686286e-06
9.23280767682e-08
2.31909524499e-06
1.22332167466e-07
2.27081176004e-06
1.61438195545e-07
2.19572393642e-06
2.18235820164e-07
2.08259597828e-06
3.05960800088e-07
1.92518956155e-06
4.39772715433e-07
1.74702308124e-06
6.23822674835e-07
1.61403971715e-06
8.24614311512e-07
1.48713731733e-06
9.94397134983e-07
1.35046813939e-06
9.21665503627e-07
1.18857933151e-06
7.14655538119e-07
1.02841856932e-06
5.90488209239e-07
8.98738453935e-07
5.27984917891e-07
7.99006591434e-07
5.18325787741e-07
7.0986407599e-07
5.5361111836e-07
6.14942166014e-07
5.74494477485e-07
5.2282832674e-07
5.33283840972e-07
4.36651439232e-07
4.82291916335e-07
3.5035217744e-07
4.59793488824e-07
2.62990391483e-07
4.48151664181e-07
1.81593991572e-07
4.28345291706e-07
1.31437905523e-07
3.53326194695e-07
8.2476897593e-08
3.07535605158e-07
3.33386455546e-08
3.721250177e-07
3.79991262104e-07
2.30658147767e-09
-2.26695955503e-07
5.26196626814e-08
-2.59308803243e-07
8.28326353203e-08
-3.44989983718e-07
1.02746114036e-07
-3.10079262678e-07
1.00747821176e-07
-1.77621123953e-07
1.85460141814e-07
-2.20951720383e-07
2.66467057319e-07
-3.11228876529e-07
3.06691282514e-07
-3.16486017991e-07
3.54030874091e-07
-3.05066684006e-07
4.01740153858e-07
-2.87587576445e-07
4.3217387971e-07
-2.59779822277e-07
4.2275653825e-07
-1.89199984121e-07
4.29561411271e-07
-1.61656947344e-07
4.72223138753e-07
-1.74713789607e-07
5.41115042958e-07
-2.1266091098e-07
6.29931265643e-07
-2.6380545233e-07
7.10863112183e-07
-2.96574691187e-07
7.63269848576e-07
-3.05475375741e-07
8.07233254079e-07
-3.18877536029e-07
8.63172644326e-07
-3.45407546781e-07
9.21048186452e-07
-3.5975608416e-07
9.76528917034e-07
-3.59460926619e-07
1.03243108703e-06
-3.537563769e-07
1.08923660861e-06
-3.46629444178e-07
1.1448191571e-06
-3.39087666681e-07
1.19553808961e-06
-3.3031327673e-07
1.25114756358e-06
-3.31141860038e-07
1.30454858863e-06
-3.26807936014e-07
1.35859654562e-06
-3.22209170851e-07
1.40359314283e-06
-3.10063786822e-07
1.4545532856e-06
-3.09733885417e-07
1.51191568063e-06
-3.17531735563e-07
1.57205841712e-06
-3.28534349226e-07
1.65294078978e-06
-3.5805050014e-07
1.73461078533e-06
-3.78539332837e-07
1.80396140051e-06
-3.84514894337e-07
1.8660695588e-06
-3.78536685064e-07
1.92477933163e-06
-3.66186551061e-07
1.98084778826e-06
-3.50210065715e-07
2.03492766609e-06
-3.3047007054e-07
2.08798875793e-06
-3.06736797191e-07
2.13916608766e-06
-2.81675199264e-07
2.18621902453e-06
-2.58517690474e-07
2.22801520359e-06
-2.37578511502e-07
2.26478260983e-06
-2.17169304578e-07
2.29700063131e-06
-1.95820589357e-07
2.32490014309e-06
-1.7279967478e-07
2.34838571635e-06
-1.47756045666e-07
2.36716955301e-06
-1.20458366554e-07
2.38079465717e-06
-9.08664610138e-08
2.38840569486e-06
-5.91796015896e-08
2.38908193773e-06
-2.54796124987e-08
2.38310856566e-06
1.02378582457e-08
2.37171166931e-06
4.70177393921e-08
2.35360475e-06
8.35335470008e-08
2.32428705934e-06
1.22135096717e-07
2.27757499825e-06
1.69554837227e-07
2.20560783783e-06
2.34034171904e-07
2.09997922515e-06
3.24476837621e-07
1.95800373875e-06
4.48660103464e-07
1.78960629198e-06
6.08892348491e-07
1.62204698409e-06
7.92103867322e-07
1.50442951951e-06
9.42952722562e-07
1.37882881631e-06
1.12070290399e-06
1.22028365314e-06
1.08081828847e-06
1.08730755682e-06
8.48108929966e-07
9.40687255461e-07
7.37525121285e-07
8.04677120105e-07
6.64403280177e-07
6.98325130183e-07
6.25092746316e-07
6.05364202845e-07
6.47039746767e-07
5.16610275362e-07
6.63721964473e-07
4.44313730042e-07
6.05996342327e-07
3.65229722361e-07
5.61762329602e-07
2.81561333055e-07
5.43855838478e-07
2.01866197795e-07
5.28243446234e-07
1.46896630925e-07
4.83658746024e-07
1.00445746804e-07
4.00071268702e-07
5.67836015025e-08
3.51542940146e-07
2.54215270937e-08
4.03622356002e-07
4.05665107578e-07
1.89011009941e-08
-2.45505264396e-07
7.47748953687e-08
-3.1504617263e-07
9.86435845061e-08
-3.68698884257e-07
8.2968286716e-08
-2.9426313145e-07
1.16122820564e-07
-2.10648799833e-07
2.0653607072e-07
-3.11185110863e-07
2.50305098289e-07
-3.54801009642e-07
2.84380155081e-07
-3.50374413084e-07
3.18166000401e-07
-3.3867720224e-07
3.65295528887e-07
-3.34558792027e-07
3.64692729893e-07
-2.59054502402e-07
3.64916174911e-07
-1.89314480133e-07
4.05048340558e-07
-2.0166607223e-07
4.61539851724e-07
-2.31062232587e-07
5.45508708732e-07
-2.96464240841e-07
6.2889179706e-07
-3.47019016108e-07
6.80226857206e-07
-3.47751103988e-07
7.22203085575e-07
-3.47298468378e-07
7.82077615258e-07
-3.78594964635e-07
8.43488997606e-07
-4.06660084904e-07
8.99211562393e-07
-4.15320902862e-07
9.54444242325e-07
-4.14537699462e-07
1.01077543517e-06
-4.0993119177e-07
1.06434215215e-06
-4.00042895484e-07
1.11511614391e-06
-3.89710792861e-07
1.16724770847e-06
-3.82293307746e-07
1.21808208024e-06
-3.81823246072e-07
1.2728010293e-06
-3.81373120754e-07
1.32126184684e-06
-3.70515968556e-07
1.36759140941e-06
-3.56235858406e-07
1.42855109422e-06
-3.70525636801e-07
1.49398744133e-06
-3.82794407506e-07
1.57217402638e-06
-4.06534302627e-07
1.65317726935e-06
-4.38853565095e-07
1.73269632124e-06
-4.57850154553e-07
1.80040067876e-06
-4.5200757112e-07
1.86164920037e-06
-4.39570540012e-07
1.92065807374e-06
-4.24976836389e-07
1.97809160159e-06
-4.0741963858e-07
2.03380969653e-06
-3.85958530768e-07
2.08792225833e-06
-3.60614128973e-07
2.13970968849e-06
-3.33222669404e-07
2.18757186461e-06
-3.06135104818e-07
2.23040852271e-06
-2.80165447031e-07
2.26807390565e-06
-2.54578752974e-07
2.30078875836e-06
-2.28272509355e-07
2.328633882e-06
-2.00373697582e-07
2.35140878905e-06
-1.7025038563e-07
2.36872449272e-06
-1.37482817949e-07
2.38006550089e-06
-1.01905633878e-07
2.3847854935e-06
-6.35777056174e-08
2.38235393138e-06
-2.27167949008e-08
2.37270915662e-06
2.02452381429e-08
2.35532788086e-06
6.47874091327e-08
2.32727458866e-06
1.12015322354e-07
2.28294648746e-06
1.66908534638e-07
2.21572223556e-06
2.37334739291e-07
2.12058798559e-06
3.2965151936e-07
1.99849894745e-06
4.47210783379e-07
1.85798984502e-06
5.89755739061e-07
1.71708292102e-06
7.50454286792e-07
1.59838233592e-06
9.11453201546e-07
1.47115179978e-06
1.07082980144e-06
1.34245920806e-06
1.25004182321e-06
1.12902334571e-06
1.29482737057e-06
9.74107110535e-07
1.00347231467e-06
8.52608376804e-07
8.59441644725e-07
7.22992413943e-07
7.94415070102e-07
6.02185605939e-07
7.46304711817e-07
5.02874685647e-07
7.46746184053e-07
4.38515219637e-07
7.28453834321e-07
3.77287031533e-07
6.67556309467e-07
2.98566619731e-07
6.40811047429e-07
2.1987532562e-07
6.22882993533e-07
1.54117215067e-07
5.94324540156e-07
1.17574414527e-07
5.20498579625e-07
6.87537323831e-08
4.4913806693e-07
2.73443462088e-08
3.93112070291e-07
1.47614822955e-08
4.16671425899e-07
4.20469255028e-07
3.41252780935e-08
-2.79501717139e-07
7.97127323459e-08
-3.60495832589e-07
9.00156524006e-08
-3.78860704943e-07
5.97235487645e-08
-2.63863045207e-07
1.25068051461e-07
-2.75857487304e-07
1.94260128613e-07
-3.80195302404e-07
2.27168637136e-07
-3.87535310387e-07
2.61844473484e-07
-3.84883040532e-07
2.73866710827e-07
-3.50546244317e-07
2.97047169072e-07
-3.57593815319e-07
2.89437665558e-07
-2.51335792578e-07
3.35021201646e-07
-2.34776838117e-07
3.83244220509e-07
-2.49751170161e-07
4.56482576589e-07
-3.0414401186e-07
5.39665446429e-07
-3.79472164413e-07
5.93520215444e-07
-4.00703377247e-07
6.3151407843e-07
-3.85590010063e-07
6.91421897358e-07
-4.07049651946e-07
7.5786428188e-07
-4.44875766902e-07
8.1564524893e-07
-4.64279976259e-07
8.69978855785e-07
-4.69495868586e-07
9.24540953476e-07
-4.68940824508e-07
9.82496107123e-07
-4.67731031827e-07
1.03928553546e-06
-4.56681023799e-07
1.08631247104e-06
-4.36584284515e-07
1.14238932756e-06
-4.3821800572e-07
1.19149561415e-06
-4.30775600709e-07
1.2361197151e-06
-4.25841908884e-07
1.28338446086e-06
-4.17624789117e-07
1.35896045992e-06
-4.3164582178e-07
1.42334192643e-06
-4.34733466746e-07
1.48488861084e-06
-4.44156749828e-07
1.56735261591e-06
-4.88803519365e-07
1.65499499907e-06
-5.26289588379e-07
1.72612561359e-06
-5.28768903659e-07
1.79165363887e-06
-5.17320628254e-07
1.85460367186e-06
-5.023024884e-07
1.91562131461e-06
-4.85772465543e-07
1.97499034594e-06
-4.6656171063e-07
2.03256564657e-06
-4.43301412677e-07
2.0880804286e-06
-4.15891242485e-07
2.14085905469e-06
-3.85758833479e-07
2.18972825954e-06
-3.547575058e-07
2.23368332351e-06
-3.23868935224e-07
2.27231721421e-06
-2.92955903033e-07
2.30555255556e-06
-2.6124494283e-07
2.33323225261e-06
-2.27783574613e-07
2.35499229325e-06
-1.91733132116e-07
2.37035354355e-06
-1.52559104191e-07
2.3787962498e-06
-1.10048460762e-07
2.37975250278e-06
-6.42313729204e-08
2.37267577439e-06
-1.53048603245e-08
2.35677295197e-06
3.64948160475e-08
2.33007939768e-06
9.1861727292e-08
2.28842027756e-06
1.54078403669e-07
2.22625110653e-06
2.29565306864e-07
2.13961147099e-06
3.24384081453e-07
2.03165587873e-06
4.38212196621e-07
1.91165931379e-06
5.67675577088e-07
1.78971889052e-06
7.12319192194e-07
1.67398240637e-06
8.66790270257e-07
1.56648110768e-06
1.01957391874e-06
1.46491050824e-06
1.17300972083e-06
1.39122303805e-06
1.32432374964e-06
1.20597014567e-06
1.48063941994e-06
9.08166451395e-07
1.30173341862e-06
7.32674479697e-07
1.03532980382e-06
5.96029166231e-07
9.31459659291e-07
4.79501410143e-07
8.63197880301e-07
4.07757397614e-07
8.18825221875e-07
3.70078302908e-07
7.66417065064e-07
3.10961677007e-07
7.26949564663e-07
2.3650289122e-07
7.15556792812e-07
1.65469663005e-07
6.94205869606e-07
1.14570406073e-07
6.45495898067e-07
7.3306973458e-08
5.6201502061e-07
2.89815536196e-08
4.93713293848e-07
-9.56728538071e-09
4.31997151274e-07
-9.37772316934e-09
4.16539168946e-07
4.11314647027e-07
4.21391432254e-08
-3.2153865784e-07
7.26778372703e-08
-3.90895457736e-07
6.63657785303e-08
-3.72423189259e-07
7.18718911738e-08
-2.69259717748e-07
1.42151760977e-07
-3.45993702394e-07
1.71010090525e-07
-4.08892188309e-07
2.00489350225e-07
-4.16862553267e-07
2.332035877e-07
-4.17451493661e-07
2.43340911668e-07
-3.60544107305e-07
2.58741984444e-07
-3.72854588097e-07
2.7484869216e-07
-2.67323149445e-07
3.16258039775e-07
-2.7605572056e-07
3.69122236598e-07
-3.02467666409e-07
4.48853519374e-07
-3.83703058756e-07
5.18397374144e-07
-4.48839802176e-07
5.55255813796e-07
-4.37399186294e-07
5.99307030179e-07
-4.29483185285e-07
6.6218139731e-07
-4.69760985343e-07
7.24929502962e-07
-5.07458916698e-07
7.82550731295e-07
-5.21736852852e-07
8.37603536715e-07
-5.24383888242e-07
8.89503611811e-07
-5.20681691872e-07
9.41172506518e-07
-5.19246693203e-07
9.94428558131e-07
-5.09785006361e-07
1.04218180243e-06
-4.8418899786e-07
1.09382820781e-06
-4.89709882618e-07
1.15045624778e-06
-4.87248519949e-07
1.2110458884e-06
-4.86274028221e-07
1.2739405691e-06
-4.80358871495e-07
1.33384516117e-06
-4.91379845988e-07
1.40137227444e-06
-5.02078575417e-07
1.49208946541e-06
-5.34678970373e-07
1.57498612661e-06
-5.71494203523e-07
1.64607810961e-06
-5.97169870381e-07
1.71419709702e-06
-5.96673014395e-07
1.78088556988e-06
-5.83790860759e-07
1.8461568171e-06
-5.67351855342e-07
1.90965183259e-06
-5.49041464693e-07
1.97132111475e-06
-5.28000386107e-07
2.03104652098e-06
-5.0279127813e-07
2.08840714712e-06
-4.73011590777e-07
2.14266527686e-06
-4.39772360423e-07
2.19286706852e-06
-4.04710387673e-07
2.23813216705e-06
-3.68881003812e-07
2.27786041627e-06
-3.32426329651e-07
2.31163924589e-06
-2.94761231493e-07
2.33902938814e-06
-2.54906109484e-07
2.35948175302e-06
-2.11912649306e-07
2.37241083349e-06
-1.65206346748e-07
2.37723160331e-06
-1.14588141792e-07
2.37332146212e-06
-6.00075115164e-08
2.35978141707e-06
-1.45334589973e-09
2.33503476121e-06
6.15903182228e-08
2.29606843216e-06
1.31205419901e-07
2.23849887059e-06
2.12071771016e-07
2.15860705671e-06
3.09851901532e-07
2.05758081845e-06
4.25970248914e-07
1.94738302349e-06
5.48811524634e-07
1.84088493544e-06
6.74792222819e-07
1.73791566296e-06
8.15854283804e-07
1.63078023611e-06
9.74555041645e-07
1.52466587101e-06
1.12628959831e-06
1.43824568192e-06
1.25998823312e-06
1.37493209179e-06
1.38816566404e-06
1.31347046003e-06
1.54260966491e-06
1.00506609095e-06
1.61062745517e-06
6.2387797061e-07
1.41697033799e-06
4.6613008156e-07
1.08958535379e-06
3.68932284813e-07
9.60737656026e-07
3.21388444394e-07
8.66643918209e-07
3.00357979723e-07
7.87703448368e-07
2.50077666219e-07
7.7748331465e-07
1.82872207929e-07
7.83028184533e-07
1.16709500314e-07
7.60623831861e-07
6.41593878548e-08
6.98312592717e-07
1.01797168776e-08
6.16256828488e-07
-3.10702574106e-08
5.35210702373e-07
-5.5063717801e-08
4.56119364734e-07
-3.92554891868e-08
4.0114868043e-07
3.72073597321e-07
4.56642257025e-08
-3.67058563857e-07
7.17174770369e-08
-4.16807910842e-07
5.37169934839e-08
-3.54301991606e-07
8.06423183052e-08
-2.96071689868e-07
1.37066699241e-07
-4.02270602443e-07
1.47609149483e-07
-4.19296152427e-07
1.70550689436e-07
-4.39657373016e-07
1.86662593085e-07
-4.33432102053e-07
2.1346655128e-07
-3.87228182955e-07
2.08886726981e-07
-3.68144818317e-07
2.4615595265e-07
-3.04469928539e-07
2.94293050551e-07
-3.24056203039e-07
3.49645773993e-07
-3.57669357736e-07
4.20322651399e-07
-4.54205980229e-07
4.69633081461e-07
-4.97976905878e-07
4.98528315143e-07
-4.66136138883e-07
5.56309693473e-07
-4.87102902949e-07
6.22793975619e-07
-5.36077102015e-07
6.84047262278e-07
-5.68543048024e-07
7.43448128094e-07
-5.80969909657e-07
8.01735531946e-07
-5.82509154436e-07
8.57012586477e-07
-5.75799603734e-07
9.03453212007e-07
-5.65526138202e-07
9.51429633454e-07
-5.57609085585e-07
1.00899638007e-06
-5.41605999147e-07
1.05654776126e-06
-5.37103087739e-07
1.10473537196e-06
-5.35281419293e-07
1.15230927374e-06
-5.33690669092e-07
1.2262033224e-06
-5.54084831291e-07
1.30440831355e-06
-5.69409447415e-07
1.38749032024e-06
-5.84971212049e-07
1.46966346547e-06
-6.16649365804e-07
1.5586477701e-06
-6.60264440479e-07
1.63255116346e-06
-6.70856799103e-07
1.70069768737e-06
-6.64600568154e-07
1.76879412411e-06
-6.51664778948e-07
1.83652688283e-06
-6.34858212567e-07
1.90277655001e-06
-6.15060956288e-07
1.96708062228e-06
-5.92070139368e-07
2.02926936753e-06
-5.64741517698e-07
2.08888921517e-06
-5.32388731482e-07
2.14514587163e-06
-4.95782262649e-07
2.19713430579e-06
-4.56448437108e-07
2.24402031246e-06
-4.15512876848e-07
2.28506276512e-06
-3.7321100625e-07
2.31951802881e-06
-3.28954630098e-07
2.34658935513e-06
-2.81711742913e-07
2.36550658203e-06
-2.30558892657e-07
2.37556981441e-06
-1.74999718631e-07
2.37609095128e-06
-1.14813115071e-07
2.36616870202e-06
-4.98006156223e-08
2.34446282938e-06
2.05814034517e-08
2.30864889362e-06
9.77516805366e-08
2.25535730168e-06
1.84870686609e-07
2.18138307186e-06
2.8643493194e-07
2.08664744581e-06
4.05056701004e-07
1.97506100389e-06
5.37934888478e-07
1.86674379678e-06
6.57709752756e-07
1.77573186659e-06
7.6630518402e-07
1.68871002432e-06
9.03470462604e-07
1.57946078484e-06
1.08440186969e-06
1.45907637505e-06
1.24719127427e-06
1.3666774218e-06
1.35282155826e-06
1.31358634748e-06
1.44163075819e-06
1.30099215402e-06
1.55558240592e-06
1.19813666585e-06
1.71391812386e-06
7.71242473899e-07
1.84429504484e-06
3.39276246798e-07
1.52192327561e-06
2.41222948928e-07
1.05908053841e-06
2.1618858105e-07
8.91906101e-07
2.31429777302e-07
7.72659113612e-07
2.03778364347e-07
8.05357322535e-07
1.44216442759e-07
8.4283496286e-07
7.31206017787e-08
8.3197726325e-07
-4.4964549798e-10
7.7213236692e-07
-6.9073370955e-08
6.8512415918e-07
-1.08320494022e-07
5.7473505304e-07
-1.05462093157e-07
4.5357456638e-07
-6.56478040699e-08
3.61323284158e-07
3.06569124406e-07
3.92999475683e-08
-4.06259207886e-07
6.01642697408e-08
-4.37562034453e-07
5.08970724213e-08
-3.44939360783e-07
9.15296026625e-08