/*--------------------------------*- C++ -*----------------------------------*\
| =========                 |                                                 |
| \\      /  F ield         | OpenFOAM: The Open Source CFD Toolbox           |
|  \\    /   O peration     | Version:  v1806                                 |
|   \\  /    A nd           | Web:      www.OpenFOAM.com                      |
|    \\/     M anipulation  |                                                 |
\*---------------------------------------------------------------------------*/
FoamFile
{
    version     2.0;
    format      ascii;
    class       volVectorField;
    location    "863";
    object      U;
}
// * * * * * * * * * * * * * * * * * * * * * * * * * * * * * * * * * * * * * //

dimensions      [0 1 -1 0 0 0 0];


internalField   nonuniform List<vector> 
6400
(
(-0.000121146837373 -0.000157112507911 0)
(-0.000318177298987 -0.000112775672857 0)
(-0.000459643523992 -8.66944550665e-05 0)
(-0.0006068698735 -7.38724825325e-05 0)
(-0.000715699707975 -4.7603317065e-05 0)
(-0.000795594587144 -2.81700116455e-05 0)
(-0.00084344202829 -2.05518756985e-05 0)
(-0.000884207931145 -2.94551354441e-05 0)
(-0.000971522605819 -3.94144465886e-05 0)
(-0.00105589242389 -3.68654214268e-05 0)
(-0.00110062465905 -3.28956267829e-05 0)
(-0.00117533124395 -3.33411578874e-05 0)
(-0.00124276405057 -2.9474415714e-05 0)
(-0.00129709808781 -2.38958916631e-05 0)
(-0.00133879358239 -2.14019151823e-05 0)
(-0.00138119379318 -2.34984536535e-05 0)
(-0.00143091202497 -2.38917251952e-05 0)
(-0.00147436937927 -2.07537792828e-05 0)
(-0.00150832791904 -1.68102532767e-05 0)
(-0.00154144385216 -1.53720687704e-05 0)
(-0.00158183875412 -1.92806248215e-05 0)
(-0.00162767229547 -2.29979356487e-05 0)
(-0.00167343180825 -2.29299362566e-05 0)
(-0.00171398777996 -2.12749146104e-05 0)
(-0.00175106909584 -1.90258367497e-05 0)
(-0.00178611048102 -1.67324483142e-05 0)
(-0.0018199637338 -1.53414361443e-05 0)
(-0.00185029816426 -1.37060319123e-05 0)
(-0.00187572168232 -1.17164061921e-05 0)
(-0.00189679432361 -1.0140267376e-05 0)
(-0.00191403671348 -9.45269560694e-06 0)
(-0.00193107841042 -8.45821758325e-06 0)
(-0.00194788035124 -6.98551413399e-06 0)
(-0.00196178581398 -6.61379295039e-06 0)
(-0.00197464972608 -6.32406530972e-06 0)
(-0.00198999128469 -5.80144691508e-06 0)
(-0.00200171156234 -5.5530090105e-06 0)
(-0.00200581124159 -4.61812303414e-06 0)
(-0.00201472917107 -2.94705932647e-06 0)
(-0.00202578711685 -1.4712593866e-06 0)
(-0.00202921282797 -1.29266155144e-06 0)
(-0.00202391233097 -9.0989307396e-08 0)
(-0.00201620662283 3.34187160094e-06 0)
(-0.00200755467534 5.92196842045e-06 0)
(-0.00199555561423 7.42099730253e-06 0)
(-0.00198011213776 9.10567961263e-06 0)
(-0.00196088263588 1.09871857049e-05 0)
(-0.00193720766575 1.3264165904e-05 0)
(-0.00190903082764 1.55707341218e-05 0)
(-0.00187606313865 1.67525727386e-05 0)
(-0.00183986899828 1.67647258996e-05 0)
(-0.00180352343225 1.87742178326e-05 0)
(-0.00176088210303 2.46174476487e-05 0)
(-0.00171275398632 2.89489506904e-05 0)
(-0.00165182094149 3.3064301064e-05 0)
(-0.00157365602935 3.85033764251e-05 0)
(-0.00149179535912 3.98517853745e-05 0)
(-0.00141656802592 4.03611049496e-05 0)
(-0.00133674003479 4.51307522757e-05 0)
(-0.00123512097608 4.95183075584e-05 0)
(-0.00112937269474 5.13000827322e-05 0)
(-0.00102046183887 5.99788594842e-05 0)
(-0.000921247195772 7.90179567658e-05 0)
(-0.00076141005474 9.09921010773e-05 0)
(-0.000544934917854 7.28417305655e-05 0)
(-0.000404916731243 5.18250566631e-05 0)
(-0.000321223100153 4.30827788297e-05 0)
(-0.000253280026768 3.82427280005e-05 0)
(-0.000187210326299 3.56494427079e-05 0)
(-0.000118746403816 3.30115259773e-05 0)
(-5.56579116546e-05 2.8772784797e-05 0)
(-3.32147635666e-06 2.22828136263e-05 0)
(3.20704963012e-05 1.52335762048e-05 0)
(5.74684820353e-05 8.22861137237e-06 0)
(6.25358725799e-05 2.35292104979e-06 0)
(7.00780949552e-05 -1.23810952383e-06 0)
(5.44734752601e-05 -2.06175565776e-06 0)
(6.37864327497e-05 -6.529116443e-06 0)
(2.94016452498e-05 -6.32419244624e-06 0)
(2.25775849732e-05 -1.32351265908e-05 0)
(-4.6856945601e-05 -0.000225670579965 0)
(-0.000197185748882 -0.000246963064099 0)
(-0.000340776038276 -0.000216576383988 0)
(-0.000435785773175 -0.000173321141362 0)
(-0.000614343102801 -0.000165945137694 0)
(-0.000765222267942 -0.000116899822675 0)
(-0.000853606708031 -7.74451612976e-05 0)
(-0.000916417422153 -9.36407417723e-05 0)
(-0.000982760877139 -0.000114611561833 0)
(-0.00105514908599 -0.000110820524231 0)
(-0.00112289567346 -0.000101807572141 0)
(-0.00118472230971 -9.59578974181e-05 0)
(-0.00124180500295 -8.43954315826e-05 0)
(-0.00129238527279 -7.12831853438e-05 0)
(-0.00134044466878 -6.52205655386e-05 0)
(-0.0013856277276 -7.33189908663e-05 0)
(-0.00143117221423 -7.58188196399e-05 0)
(-0.00147025220693 -5.85129134073e-05 0)
(-0.001483761638 -4.55988396045e-05 0)
(-0.00152373885467 -4.70897636547e-05 0)
(-0.00157348580735 -5.97121547461e-05 0)
(-0.00162379402187 -7.23746114353e-05 0)
(-0.00167498025508 -7.14787638008e-05 0)
(-0.00171797314021 -6.25732189122e-05 0)
(-0.00174806143226 -5.56734613243e-05 0)
(-0.00178646294007 -5.13773999708e-05 0)
(-0.00182193086675 -4.64582226494e-05 0)
(-0.00185075963034 -4.06608176146e-05 0)
(-0.00187549466729 -3.51191316247e-05 0)
(-0.00189737604438 -3.06636094896e-05 0)
(-0.00191579823367 -2.78888998745e-05 0)
(-0.00192909214587 -2.46481972347e-05 0)
(-0.00194589532116 -2.01599869259e-05 0)
(-0.0019592804251 -1.95866363053e-05 0)
(-0.00197072120857 -2.01637509827e-05 0)
(-0.00199013024725 -1.75034468116e-05 0)
(-0.00199996142515 -1.61410093623e-05 0)
(-0.00200398538793 -1.49788576912e-05 0)
(-0.00201551764348 -1.11499973374e-05 0)
(-0.00203160572192 -5.32693365928e-06 0)
(-0.0020359940719 2.09797981221e-06 0)
(-0.00201057967654 8.65629119107e-06 0)
(-0.00199234442184 1.29335610648e-05 0)
(-0.00198661413574 1.62628337801e-05 0)
(-0.00197661666971 1.99619688886e-05 0)
(-0.00196462083775 2.46031368011e-05 0)
(-0.00194965073867 3.02994006803e-05 0)
(-0.00192889644376 3.67772961447e-05 0)
(-0.00190604227132 4.37279628024e-05 0)
(-0.00187765085709 5.04081852989e-05 0)
(-0.0018390681962 5.60256132761e-05 0)
(-0.00178649090425 6.1325238356e-05 0)
(-0.0017369543053 6.83750679313e-05 0)
(-0.00171203177603 8.1037677915e-05 0)
(-0.00164661304772 9.71631051209e-05 0)
(-0.0015744377259 0.000109968232286 0)
(-0.00151046903811 0.000116728569093 0)
(-0.0014331707091 0.000123551918679 0)
(-0.00134453867622 0.000136375042005 0)
(-0.00124940417437 0.000151302077163 0)
(-0.00114235802929 0.000166174529904 0)
(-0.00100278365113 0.000185663567713 0)
(-0.000900741533688 0.000235791986594 0)
(-0.000737159783913 0.000272981986179 0)
(-0.000541115275146 0.000236814869317 0)
(-0.000380435214211 0.000163436510569 0)
(-0.000286651080549 0.000120328777997 0)
(-0.000229984503519 0.000108709408948 0)
(-0.000165990878641 0.000104643244017 0)
(-0.000103076509311 0.000101005141188 0)
(-4.14405781105e-05 8.78917506787e-05 0)
(8.34491790541e-06 6.58216850354e-05 0)
(4.12037196473e-05 4.19830615212e-05 0)
(6.64271628466e-05 2.48272458253e-05 0)
(7.92531260116e-05 9.83245221575e-06 0)
(8.39009223251e-05 -1.75035193966e-06 0)
(8.0275639335e-05 -9.18252869259e-06 0)
(7.09909683859e-05 -2.03883212133e-05 0)
(4.66108870371e-05 -2.9471976509e-05 0)
(2.26012319043e-05 -5.48166646564e-05 0)
(-6.70786223444e-05 -0.000388606714338 0)
(-0.000187351680053 -0.000412110167488 0)
(-0.000291637059662 -0.000374255648609 -8.30681180989e-29)
(-0.000475799761367 -0.000364365063224 7.54431229654e-29)
(-0.000641349829833 -0.000348024683703 6.51301162475e-29)
(-0.000752414172573 -0.000277145575495 -5.88891765595e-29)
(-0.000834626772248 -0.000154712890656 5.84712506076e-29)
(-0.000900413731399 -0.000158044956197 -5.5849687852e-29)
(-0.000968661254964 -0.000187530707423 0)
(-0.00104507510197 -0.000186919786979 0)
(-0.00111870043087 -0.000172480162721 0)
(-0.00118356295651 -0.000155096729105 0)
(-0.00124085663291 -0.000135729821043 0)
(-0.00129042125801 -0.000120915912238 0)
(-0.00134038530247 -0.000112799802622 0)
(-0.00138679019959 -0.000102838466773 0)
(-0.00133310972091 -8.37921366453e-05 0)
(-0.00132123557237 -7.17028852162e-05 0)
(-0.00136740172946 -8.12270871713e-05 0)
(-0.00144670439562 -0.00010848553255 0)
(-0.00157105188305 -0.000130191077121 0)
(-0.00163683609826 -0.000129396372493 0)
(-0.00166928695967 -0.000117046374756 0)
(-0.00171210018786 -0.000103753144956 0)
(-0.00175458378545 -9.37773142898e-05 0)
(-0.00178913647904 -8.59570657934e-05 0)
(-0.00182065439674 -7.67578930216e-05 0)
(-0.00184989078371 -6.71937267093e-05 0)
(-0.00187526074241 -5.8549795847e-05 0)
(-0.00189662936009 -5.14820354986e-05 -9.70734449985e-29)
(-0.00191659617459 -4.53695703525e-05 9.35982618302e-29)
(-0.00192647900252 -3.98289843264e-05 0)
(-0.00194236275082 -3.39712871496e-05 0)
(-0.00196394492097 -3.00303444307e-05 0)
(-0.0019619959094 -3.25786293674e-05 0)
(-0.00198205953346 -3.25818489126e-05 0)
(-0.00200486076946 -2.70325878402e-05 0)
(-0.00200128407927 -2.44469182919e-05 0)
(-0.00201362925493 -2.20097460012e-05 0)
(-0.00203052591602 -1.18283695884e-05 0)
(-0.00203556934152 5.26096601007e-06 0)
(-0.00202935788432 1.85455788668e-05 0)
(-0.00202031659861 2.34540796444e-05 0)
(-0.00201092145094 2.70378755117e-05 0)
(-0.00199863143167 3.29271424041e-05 0)
(-0.00198270757936 4.05427684815e-05 0)
(-0.00196319639608 4.98011935252e-05 0)
(-0.00193996538179 6.00415674856e-05 0)
(-0.00191302422115 7.12144776599e-05 0)
(-0.00188188320807 8.37597002114e-05 0)
(-0.0018458246274 9.65774612843e-05 0)
(-0.00180491590576 0.000107034419435 0)
(-0.00175979834054 0.000116241551473 0)
(-0.00170457139264 0.000134188719473 0)
(-0.00163898836579 0.000157501903018 0)
(-0.00157805512102 0.000175737726582 0)
(-0.00150916404902 0.000191126752523 0)
(-0.00142748984948 0.00020901957816 0)
(-0.001335357974 0.000230625876687 0)
(-0.00123313667311 0.000256020110079 0)
(-0.00111616443971 0.000287626657622 0)
(-0.0009921292069 0.000333871334503 0)
(-0.00085599054529 0.000411188471105 0)
(-0.000669742170617 0.000444840384735 0)
(-0.000465689008848 0.000357809843818 0)
(-0.00034572952807 0.000267398160091 0)
(-0.000266657127068 0.000211942993968 0)
(-0.000193167774487 0.000180903998432 0)
(-0.000128967913814 0.00016837782247 0)
(-6.88043378048e-05 0.000156908652764 0)
(-1.31536146022e-05 0.000133774262188 0)
(3.23942528352e-05 0.000102151365932 0)
(6.87821132919e-05 7.38730430037e-05 0)
(9.30314380813e-05 4.55127839021e-05 0)
(0.000100818333662 1.73284788826e-05 0)
(9.97796202559e-05 -2.99760263347e-06 0)
(9.23587871489e-05 -1.81854435424e-05 0)
(7.88702280868e-05 -4.07267415685e-05 0)
(5.78739374145e-05 -7.37905356837e-05 0)
(1.58094493939e-05 -8.13915783241e-05 0)
(-6.61331053266e-05 -0.000565883505389 0)
(-9.72252688514e-05 -0.000400832668917 0)
(-0.000238161400347 -0.000556034168809 0)
(-0.000407628496943 -0.000538476029418 0)
(-0.000565933892887 -0.000456357827647 0)
(-0.000364491918445 -0.000196611390013 0)
(-0.000464426448969 -0.000195543665101 0)
(-0.000795746785105 -0.000311056239774 0)
(-0.000925789723251 -0.000306925850396 0)
(-0.00102235497251 -0.000275817479501 0)
(-0.00110795166902 -0.000249460019171 0)
(-0.00118031268682 -0.000220341815371 0)
(-0.00124193902003 -0.000190879840963 0)
(-0.00128713255282 -0.000155761497679 0)
(-0.0012656450727 -0.000115330092855 0)
(-0.00123790679222 -8.92513395994e-05 0)
(-0.00125035300074 -8.85701191737e-05 0)
(-0.00131693814031 -0.000120821668014 0)
(-0.00143979720314 -0.000168205079068 0)
(-0.00154067222845 -0.000202307696763 0)
(-0.00158496452305 -0.000200628979661 0)
(-0.00163006841845 -0.000180046114061 0)
(-0.00167619292034 -0.000161104651064 0)
(-0.00171695714211 -0.000145921747952 0)
(-0.00175390723367 -0.000131790348542 0)
(-0.00178755335204 -0.000118658851824 0)
(-0.00181850684022 -0.000106389073162 0)
(-0.00184948335779 -9.40961945857e-05 0)
(-0.00187355926579 -8.22496603569e-05 0)
(-0.00189830161512 -7.192739881e-05 0)
(-0.00191168355228 -6.30145264325e-05 0)
(-0.0019313079044 -5.41407878553e-05 0)
(-0.00193470340155 -4.531108517e-05 0)
(-0.00195351412214 -4.29487477125e-05 0)
(-0.00197960230862 -4.56162124324e-05 0)
(-0.00198041872106 -4.74264912163e-05 0)
(-0.00200204206039 -4.30639772865e-05 0)
(-0.00202161248432 -3.66779266354e-05 0)
(-0.00202880046673 -3.01803664964e-05 0)
(-0.00203333371121 -1.60924762432e-05 0)
(-0.00203500642981 3.85913869641e-06 0)
(-0.00203145315499 2.07077722442e-05 0)
(-0.00202435296783 3.09135789004e-05 0)
(-0.00201484568885 3.87373085374e-05 0)
(-0.00200211350704 4.78478798574e-05 0)
(-0.0019858167071 5.88445449255e-05 8.02198960087e-29)
(-0.00196594191842 7.14874715597e-05 -8.05095024569e-29)
(-0.00194237955539 8.54074503717e-05 0)
(-0.00191501471529 0.000100554158194 0)
(-0.00188350159377 0.000116855179832 0)
(-0.00184727183898 0.000133446824614 0)
(-0.0018057071871 0.000149802548004 0)
(-0.00175813383785 0.000168554218919 0)
(-0.00170314026511 0.000192884761857 0)
(-0.00164195856281 0.000218744005738 0)
(-0.00157629931346 0.000243356381543 0)
(-0.00150252351281 0.000269592906617 0)
(-0.00141686900928 0.00029905098009 1.45892731937e-28)
(-0.00131848696981 0.000332800729652 -1.67085234695e-28)
(-0.00120595894401 0.000372798442328 0)
(-0.00107685032913 0.000423118528161 0)
(-0.000932777537912 0.000492909760713 0)
(-0.000772664825282 0.000572155128322 0)
(-0.000614823001098 0.000600992841166 0)
(-0.000466137381755 0.000527023336235 0)
(-0.00030915792557 0.00037049533064 0)
(-0.000214058533841 0.000284055499503 0)
(-0.000143622960516 0.00024819314933 0)
(-8.21867950142e-05 0.000229105358406 0)
(-2.71568591403e-05 0.000215916324262 0)
(2.73160082941e-05 0.000189996462191 0)
(7.55255332935e-05 0.00015027428448 0)
(0.000105300390984 0.000102097468711 0)
(0.000110102059435 5.26583872616e-05 0)
(0.000111739031625 1.74481700288e-05 0)
(0.000110429048671 -1.02854753338e-05 0)
(9.61910290591e-05 -3.61438789165e-05 0)
(6.15757962604e-05 -5.38880468137e-05 0)
(4.65350555727e-05 -9.03496620227e-05 0)
(1.61347537772e-05 -0.00011499301683 0)
(-1.25631770535e-05 -0.00058313282679 0)
(-5.59498658992e-05 -0.000486597855763 0)
(-0.000211340769182 -0.000715952222075 0)
(-0.000351220661748 -0.000660502224446 0)
(-0.000409226057265 -0.000460805433146 0)
(-0.000341952451861 -0.000266669221663 0)
(-0.000559386173479 -0.000404991110787 0)
(-0.000776615291125 -0.0005037706114 0)
(-0.000877145885151 -0.000438414618725 0)
(-0.000989335455846 -0.000378390011104 0)
(-0.00108474294844 -0.000340648402737 0)
(-0.00116645244653 -0.000295901456581 0)
(-0.00119866047724 -0.000220527010007 0)
(-0.00115135775754 -0.000142858708616 0)
(-0.00117867706192 -0.000114557067245 0)
(-0.00124064986379 -0.000125750565896 0)
(-0.00133254057807 -0.000166935382837 0)
(-0.0014322185314 -0.000220119331513 0)
(-0.00150099746867 -0.000251990975459 0)
(-0.00153500810583 -0.000252157916267 0)
(-0.00158146086046 -0.000242950534616 0)
(-0.00163240358272 -0.000227650057527 0)
(-0.00167609030161 -0.000206809539222 0)
(-0.0017164725581 -0.000185929984237 0)
(-0.00175285638397 -0.000167382848199 0)
(-0.00178541162047 -0.000151579940019 0)
(-0.00181916542997 -0.000136411249459 0)
(-0.0018446518139 -0.000121165498772 0)
(-0.00187586018804 -0.000106047684645 0)
(-0.0018905643192 -9.1568633029e-05 0)
(-0.00191678593953 -7.92991413545e-05 -9.33610343488e-29)
(-0.00191101281722 -6.81941970035e-05 8.93029953367e-29)
(-0.00194157924997 -6.1905638415e-05 0)
(-0.00196922867142 -5.88492850927e-05 0)
(-0.00197528259587 -6.11012400225e-05 0)
(-0.00200099179804 -6.41768233787e-05 0)
(-0.00201630104096 -6.07302461843e-05 0)
(-0.00202659848127 -4.92608718169e-05 0)
(-0.00203299236224 -3.46925182804e-05 0)
(-0.0020366074067 -1.68683376859e-05 0)
(-0.00203775615311 4.00357390307e-06 0)
(-0.00203526643658 2.31648382691e-05 0)
(-0.00202913426684 3.77715705563e-05 0)
(-0.00201969411736 5.00353799634e-05 0)
(-0.00200672785046 6.2870367215e-05 0)
(-0.00199014741858 7.73399988196e-05 0)
(-0.00196993615959 9.34754988031e-05 0)
(-0.00194598036337 0.0001110802439 0)
(-0.00191809340619 0.000130110336781 0)
(-0.00188594264913 0.000150500941004 0)
(-0.00184899046195 0.000171944492707 0)
(-0.00180649696533 0.000194686471729 0)
(-0.00175765860722 0.000220379694095 0)
(-0.00170189975137 0.000250021310738 0)
(-0.00163982844304 0.000281855365812 0)
(-0.00157118348791 0.000315579729357 0)
(-0.00149245355696 0.000353324609591 0)
(-0.00139976304798 0.00039666294249 0)
(-0.00129058343638 0.000447081880357 0)
(-0.00116257422812 0.000507092597083 0)
(-0.00101495685552 0.000579136843982 0)
(-0.000853713219143 0.000658467235797 0)
(-0.000690739780489 0.000718002092675 0)
(-0.000556295870552 0.000739933896182 0)
(-0.000425989991276 0.000675687634626 0)
(-0.000283321717257 0.000508478331352 0)
(-0.000175857951754 0.000388051303872 0)
(-9.24918858692e-05 0.000322954511381 0)
(-2.68891566206e-05 0.000287184123187 0)
(2.91333765046e-05 0.00026690057556 0)
(8.42660727042e-05 0.000241295753833 0)
(0.000122733201423 0.000183410699928 0)
(0.000127412138216 0.000107407083421 0)
(0.000131074843538 5.53034522997e-05 0)
(0.000134432433658 1.52558681697e-05 0)
(0.000128375012982 -2.50040963069e-05 0)
(0.000100462527519 -5.82139605915e-05 0)
(6.96436929056e-05 -8.03934858142e-05 0)
(4.9720442234e-05 -0.000125092719462 0)
(1.45642235245e-05 -0.00014161809751 0)
(-2.90436373377e-06 -0.00055447274359 0)
(-6.33962496435e-05 -0.00058816025584 0)
(-0.000209458896898 -0.000821414339269 0)
(-0.000303670859675 -0.000708437789932 0)
(-0.000251322725495 -0.000380486585681 0)
(-0.00034559827816 -0.000383687348858 0)
(-0.000649395569368 -0.000623466921234 0)
(-0.000741679873922 -0.000617611188541 0)
(-0.000840318792282 -0.000550365963803 0)
(-0.000949877151785 -0.00048882074378 0)
(-0.001052295464 -0.000419956796433 0)
(-0.00103530883284 -0.000307600642158 0)
(-0.000981494592995 -0.000195405200131 0)
(-0.0010497482091 -0.000166325601112 0)
(-0.00113308036439 -0.000182407035729 0)
(-0.00126296618108 -0.000228770399564 0)
(-0.00137730992913 -0.000272153165378 0)
(-0.00145129347337 -0.000290566989573 0)
(-0.00147857733019 -0.000288952766553 0)
(-0.00153080116672 -0.000294112753526 0)
(-0.00158677083996 -0.000292517628493 0)
(-0.00163201851353 -0.00027453836686 0)
(-0.00167424717054 -0.000250239344371 0)
(-0.00171345853497 -0.000226156537826 0)
(-0.00175351329542 -0.000204005184395 0)
(-0.00178627417218 -0.000182753902404 0)
(-0.00180800949936 -0.000165643679913 0)
(-0.0018488457409 -0.000149122795139 0)
(-0.00186036100378 -0.000128700513637 0)
(-0.00189850500366 -0.000109267919481 0)
(-0.00188573010446 -9.18541736909e-05 0)
(-0.00192500883011 -8.61015809256e-05 0)
(-0.00191850901946 -8.14827621744e-05 0)
(-0.00196206350055 -8.13709188943e-05 0)
(-0.00199746174967 -8.36837577507e-05 0)
(-0.00201341566909 -8.30981033354e-05 0)
(-0.00202377044165 -7.28959158919e-05 0)
(-0.00203195408544 -5.71684008551e-05 0)
(-0.00203776644803 -3.89407038678e-05 0)
(-0.00204128290967 -1.83606361715e-05 0)
(-0.00204234536765 4.11448313518e-06 0)
(-0.00204027812612 2.56905339746e-05 0)
(-0.00203465818518 4.43332484199e-05 0)
(-0.00202535877525 6.10547469905e-05 0)
(-0.00201231518451 7.79199506411e-05 0)
(-0.00199552879959 9.60926364833e-05 0)
(-0.0019749972939 0.000115874522315 0)
(-0.00195057398519 0.000137265665422 0)
(-0.00192200728116 0.000160304018348 0)
(-0.00188895707676 0.000185055133374 0)
(-0.00185092037026 0.000211614777344 0)
(-0.00180720415527 0.000240500224394 0)
(-0.0017571033739 0.000272721858084 0)
(-0.00170015925621 0.000308732606986 0)
(-0.00163604987869 0.000348362561988 0)
(-0.00156302244077 0.000392918400472 0)
(-0.00147704526004 0.000444884143314 0)
(-0.00137377967983 0.000506128708509 0)
(-0.00125012783979 0.000577864345444 0)
(-0.00110472396742 0.000659663553252 0)
(-0.00094195847004 0.000745729944177 0)
(-0.000773864614966 0.000815712004984 0)
(-0.000605765808793 0.00084188286276 0)
(-0.000491565627657 0.000885642464594 0)
(-0.000345896345053 0.000791043203043 0)
(-0.000219059606416 0.000610338116506 0)
(-0.000121589954048 0.000482317865786 0)
(-3.3221695908e-05 0.000399456183662 0)
(3.89264393292e-05 0.00034611276099 0)
(0.000100696998966 0.000324389999721 0)
(0.000149114553481 0.000283558273978 0)
(0.000155428653732 0.000188693855853 0)
(0.000153822141981 0.000111306748974 0)
(0.000164067166653 6.00772281379e-05 0)
(0.000165036909928 9.07658247391e-06 0)
(0.000153381868052 -4.72584117652e-05 0)
(0.000113985397928 -8.33502037929e-05 0)
(8.27312817895e-05 -0.000109112043884 0)
(5.77057263005e-05 -0.000158887604904 0)
(1.76478412705e-05 -0.000172247548415 0)
(-2.24009958244e-05 -0.000604866916245 0)
(-0.000124796227886 -0.000750407990239 0)
(-0.00025989773747 -0.000900502236582 0)
(-0.000312256677439 -0.000848597845621 0)
(-0.000243337570522 -0.000483311574925 0)
(-0.000467892224053 -0.000646433062451 0)
(-0.000647946014939 -0.000752905295825 0)
(-0.000716007422308 -0.00070688003 0)
(-0.000810658262199 -0.000644221916791 0)
(-0.00088569326448 -0.000580275079723 0)
(-0.00102155357598 -0.000481965406864 2.66124380459e-28)
(-0.000873570141675 -0.000273348775199 -1.79379611971e-28)
(-0.000971998624131 -0.000239493778323 0)
(-0.00103445869228 -0.000247764897419 0)
(-0.00116621063106 -0.000297671206916 0)
(-0.00130190334043 -0.000353215348974 0)
(-0.00138514560171 -0.00035844307534 0)
(-0.00140409127947 -0.000332300720046 0)
(-0.00146772799574 -0.000336170394019 0)
(-0.00153727995501 -0.000349425197407 0)
(-0.00158291263163 -0.000341571655517 0)
(-0.00162937628967 -0.000319782257942 0)
(-0.00167370091896 -0.000293625291874 0)
(-0.0017146781625 -0.000265796958456 0)
(-0.00174690738045 -0.000237599646514 0)
(-0.00177397890141 -0.000211716193088 0)
(-0.00181496213676 -0.000193180256236 0)
(-0.00181910811736 -0.000175109091761 0)
(-0.00187090592049 -0.000152255235918 0)
(-0.00185559662898 -0.000121065615843 0)
(-0.00190502130916 -0.000109917169326 0)
(-0.00189855507398 -0.000106791430753 8.88106567494e-29)
(-0.00194241533352 -0.000106617105392 -8.86716553158e-29)
(-0.00197110362837 -0.000111696075514 0)
(-0.00200771554013 -0.000110549875727 0)
(-0.00202209352868 -9.88459068209e-05 0)
(-0.00203053407645 -8.26041851384e-05 0)
(-0.00203784423909 -6.39008433281e-05 0)
(-0.00204371961617 -4.31120365374e-05 0)
(-0.00204739389766 -2.02202735163e-05 0)
(-0.00204846359906 4.21409814391e-06 0)
(-0.00204656886889 2.83801874566e-05 0)
(-0.00204120570802 5.08182625717e-05 0)
(-0.00203203495515 7.1884846686e-05 0)
(-0.00201896773251 9.29410576653e-05 0)
(-0.00200201882876 0.000115052874243 0)
(-0.00198114181888 0.000138708697422 0)
(-0.00195612588929 0.000164102174706 0)
(-0.00192667417812 0.000191390831445 0)
(-0.00189246160709 0.000220785714846 0)
(-0.00185305168109 0.000252629004822 0)
(-0.001807843129 0.000287542211012 0)
(-0.00175616906726 0.000326353691505 0)
(-0.00169728650884 0.000369850247138 0)
(-0.00162985628833 0.000419324099591 0)
(-0.00155087925074 0.000477422258241 0)
(-0.00145563710609 0.000547116420422 0)
(-0.00133964043391 0.000629728516158 0)
(-0.00120121300481 0.000723491527121 0)
(-0.00104379017098 0.000822142832908 0)
(-0.000875620644492 0.000911490213125 0)
(-0.000708885144502 0.000971742416855 0)
(-0.000556773482592 0.00100684587216 0)
(-0.000425890536864 0.00100940247226 0)
(-0.000289377696766 0.00091214706296 0)
(-0.000144873046827 0.00070131655998 0)
(-4.63207946294e-05 0.000582256147053 0)
(4.4834935024e-05 0.000494839403792 0)
(0.000122003804446 0.000426584762066 0)
(0.000179489545923 0.000374682189721 0)
(0.00019838004127 0.000290317290197 0)
(0.000186275205316 0.000186817312407 0)
(0.000193893619947 0.000120711155315 0)
(0.000204755147013 6.49076657158e-05 0)
(0.000206468466752 -1.51358122491e-06 0)
(0.000181103160706 -7.20341575699e-05 0)
(0.000144250999091 -0.000119246293595 0)
(9.93105966708e-05 -0.000144609059393 0)
(6.6747658695e-05 -0.000195181941324 0)
(2.24266990032e-05 -0.000214563439334 0)
(-4.26258205415e-05 -0.000704174762816 0)
(-0.000167191799389 -0.000896613978456 0)
(-0.000284737847701 -0.000950070970514 0)
(-0.000216817026711 -0.000632972201368 0)
(-0.000257464193798 -0.000599268600568 0)
(-0.000515746058543 -0.000852915364979 0)
(-0.000605730298735 -0.000842350259053 0)
(-0.000693876554603 -0.000795687462611 0)
(-0.000765352760572 -0.000720752959154 0)
(-0.000862341370914 -0.000649543025787 0)
(-0.000766569143971 -0.0004189992387 0)
(-0.000862711405073 -0.000327831115661 0)
(-0.000953600146453 -0.000317879777349 0)
(-0.00103516197409 -0.000348611762436 0)
(-0.00121284148183 -0.000428842877551 0)
(-0.00131101604823 -0.000446166926809 0)
(-0.00132242782153 -0.000401906750795 0)
(-0.00138479623689 -0.000386890417406 0)
(-0.00147362015269 -0.000403702324857 0)
(-0.00153311629306 -0.000405256243137 0)
(-0.0015776965465 -0.000388435943508 0)
(-0.00162178368678 -0.000364369780596 0)
(-0.00166865501575 -0.000338447978679 0)
(-0.00170981362179 -0.00030716205724 0)
(-0.0017528956198 -0.000269968307148 0)
(-0.00176640032071 -0.000242904193214 0)
(-0.00181889148643 -0.000220369897686 0)
(-0.00183012912881 -0.000194834012657 0)
(-0.0018311519667 -0.000169477054118 0)
(-0.00186323977014 -0.00014879077013 0)
(-0.0019225755187 -0.000136567900224 0)
(-0.00192210124971 -0.000126630248265 0)
(-0.00193899198463 -0.000136516239538 0)
(-0.00199530071178 -0.000143217215031 0)
(-0.00201475910877 -0.000133262567128 0)
(-0.00202770140242 -0.000113115151972 0)
(-0.00203741162466 -9.19344007306e-05 0)
(-0.00204493193812 -7.05069102676e-05 0)
(-0.00205088785171 -4.75089601369e-05 0)
(-0.00205476353033 -2.24071515831e-05 0)
(-0.00205595174709 4.26885004885e-06 0)
(-0.00205413270219 3.12011553172e-05 0)
(-0.00204890596528 5.73073399001e-05 0)
(-0.00203985740863 8.26095341878e-05 0)
(-0.0020268033145 0.000107953397574 7.81403263775e-29)
(-0.00200970011416 0.000134237751681 -7.78005626443e-29)
(-0.00198841395706 0.000162061150529 0)
(-0.00196265295518 0.000191772083479 0)
(-0.001932089808 0.000223628115562 0)
(-0.00189643516252 0.000257945610498 0)
(-0.00185532821175 0.000295228708508 0)
(-0.00180824679526 0.000336260980329 0)
(-0.00175447229109 0.000382142358561 0)
(-0.00169281364153 0.000434493693049 0)
(-0.00162097011249 0.000496011629195 0)
(-0.00153496573968 0.000570422494798 0)
(-0.00142976114363 0.00066059910331 0)
(-0.00130191604488 0.000765564287047 0)
(-0.0011532153435 0.000878529950293 0)
(-0.000990339136143 0.000988610866759 0)
(-0.000819902234402 0.00108038959361 0)
(-0.000651432191757 0.00113552607515 0)
(-0.000497146457817 0.00115051634611 0)
(-0.000363777619032 0.00112496416551 0)
(-0.000255595125147 0.00108259023299 0)
(-8.77604261459e-05 0.000834608932936 0)
(4.38491528322e-05 0.000677592748024 0)
(0.000140410072938 0.000577910258557 0)
(0.000209571916959 0.000481782075738 0)
(0.000246499343496 0.000390346659869 0)
(0.000240639196091 0.000280257376422 0)
(0.000228234320544 0.000188588055693 0)
(0.000239053148744 0.000131737451257 0)
(0.000252648747681 7.2255358425e-05 0)
(0.000257615045602 -1.28995846855e-05 0)
(0.000225735143032 -0.000103241720759 0)
(0.000184783875059 -0.000166626664108 0)
(0.000123429395204 -0.000197226648196 0)
(7.34644102667e-05 -0.000239466520721 0)
(2.48010089292e-05 -0.000266510920412 0)
(-5.70078207245e-05 -0.000824535675338 0)
(-0.000183979809988 -0.00101290383067 0)
(-0.000249818740192 -0.000995637561323 0)
(-0.000211238616619 -0.000695221058246 0)
(-0.000333469562921 -0.000773249153764 0)
(-0.000519143235444 -0.000961034044263 0)
(-0.000570326194854 -0.000927061806778 0)
(-0.00067420230872 -0.000880742310707 0)
(-0.000687431393109 -0.00075340492712 0)
(-0.000866152672855 -0.000733479526973 0)
(-0.000746291168209 -0.000468263598554 0)
(-0.00086368179288 -0.00041653335762 0)
(-0.000944341992521 -0.000412109882358 0)
(-0.00108397420683 -0.000480556925039 0)
(-0.001219514592 -0.000544127087228 0)
(-0.00129687047784 -0.000514724167273 0)
(-0.00130947122519 -0.000454568879582 0)
(-0.00138819485415 -0.000457877593276 0)
(-0.0014658195146 -0.000470938634736 0)
(-0.00152344578801 -0.000460599536574 0)
(-0.001575059695 -0.000436714212241 0)
(-0.00161751700803 -0.000407379489382 0)
(-0.00166240744324 -0.000379219488085 0)
(-0.00168979870294 -0.000346953997762 0)
(-0.00172150425701 -0.000301169438558 0)
(-0.00178004850701 -0.000271642412869 0)
(-0.00176302649335 -0.000246647010132 0)
(-0.00184958969899 -0.00022107478503 0)
(-0.00182978302568 -0.000194900574168 0)
(-0.00189974627883 -0.000183056387301 0)
(-0.00188407599128 -0.000161644369684 0)
(-0.00195227438879 -0.000156681246914 0)
(-0.00198121407193 -0.000166342444124 9.15457653621e-29)
(-0.00200317508027 -0.000168859140618 -9.04069129575e-29)
(-0.00202058256547 -0.000151050024749 0)
(-0.00203423142799 -0.00012654096166 0)
(-0.00204508298535 -0.000101886112178 0)
(-0.00205319727595 -7.75763246406e-05 0)
(-0.00205927552835 -5.22131594938e-05 0)
(-0.00206326567893 -2.48736622621e-05 0)
(-0.00206463970673 4.21993515373e-06 0)
(-0.0020629696006 3.40741231938e-05 0)
(-0.0020578601867 6.38046507519e-05 0)
(-0.00204892851618 9.32672676617e-05 0)
(-0.00203593112801 0.000122983946234 0)
(-0.00201867984859 0.000153694967058 0)
(-0.00199690381997 0.000186040932339 0)
(-0.00197023608629 0.000220466910671 0)
(-0.00193833064858 0.000257282562591 0)
(-0.00190092224593 0.000296853395548 0)
(-0.00185772292709 0.000339823241382 0)
(-0.00180828505784 0.000387278566798 0)
(-0.00175181337374 0.000440940675555 0)
(-0.00168668927863 0.000503517376072 0)
(-0.0016099068668 0.000578945956777 0)
(-0.00151700887964 0.000671481080406 0)
(-0.00140328709097 0.000782976061623 0)
(-0.00126705434403 0.000909371695851 0)
(-0.00111297262489 0.00103932804728 0)
(-0.000947544967303 0.00116022366213 0)
(-0.000771899200077 0.00125832829976 0)
(-0.000593035095169 0.00130464047206 0)
(-0.000427634725775 0.00129903665831 0)
(-0.000283590960241 0.00125437471679 0)
(-0.000172757626495 0.00118062333686 0)
(-4.25214698239e-05 0.00103963383069 0)
(0.000124245487328 0.000768688272799 0)
(0.000246443323199 0.000660115089765 0)