/*--------------------------------*- C++ -*----------------------------------*\
| =========                 |                                                 |
| \\      /  F ield         | OpenFOAM: The Open Source CFD Toolbox           |
|  \\    /   O peration     | Version:  v1806                                 |
|   \\  /    A nd           | Web:      www.OpenFOAM.com                      |
|    \\/     M anipulation  |                                                 |
\*---------------------------------------------------------------------------*/
FoamFile
{
    version     2.0;
    format      ascii;
    class       volScalarField;
    location    "747";
    object      alphak;
}
// * * * * * * * * * * * * * * * * * * * * * * * * * * * * * * * * * * * * * //

dimensions      [0 0 -1 0 0 0 0];


internalField   nonuniform List<scalar> 
6400
(
0.899454006431
1.45173999312
2.31084807842
2.90471732944
3.47103085002
4.0341707666
4.73117667085
5.5085110995
5.99924987416
6.73290846791
8.02105691369
8.95939996581
9.75757961855
10.6412099466
11.7100464565
12.8347573364
13.8606100356
14.8275217082
15.6458715961
16.1574967481
16.4649347855
16.9197540437
17.71963304
18.8361592674
20.0480165163
21.1520329094
22.0879145307
22.9629837614
23.8753271417
24.8402532601
25.802539994
26.577290744
27.0875926262
27.4479179704
27.7040234091
27.8628535792
28.1878873955
28.7177112343
28.9501505405
28.9740049292
29.3529255992
30.2079283354
31.057028544
31.5467771471
31.7171709754
31.6629151394
31.4495723005
31.1191745394
30.6848075751
30.1660756065
29.4848664927
28.4347323438
27.0182775115
25.3168850588
23.7533356085
22.3518119574
20.4879213735
17.9293806607
15.2546968054
12.9788181052
10.6761222772
8.2662083852
6.01979780849
5.82847835987
8.94590123599
13.5501066799
16.3657780077
15.9499436273
13.8749696257
12.2404482212
11.4024232534
11.6896856661
12.3371640475
12.2901538715
14.4702669435
13.9540467574
15.9069587284
9.80414472563
12.8563128459
4.80193760387
3.16747640607
2.55324983797
3.1922783784
4.46908142859
4.45911642493
4.44695556328
4.73288594846
5.24023286757
5.94951417424
6.84479936018
7.91312830599
8.98069149181
9.93372389835
10.8493035944
11.7867729087
12.8530729779
13.9759922469
15.0460997044
16.1211573926
16.4697477504
16.6017674801
17.0372625591
17.8188230692
18.9252366082
20.2500327268
21.3023643357
22.2108703323
23.1208755975
24.0467067757
24.9827232639
25.9184608077
26.7741058361
27.2784313674
27.6318090858
27.9171658197
27.9997092221
28.366607614
28.9211439382
29.1138378993
29.0166119408
29.3689438792
30.6919951856
31.8029916181
32.2065433626
32.322573084
32.2007186279
31.9027023659
31.513700261
30.9378836468
30.2709272857
29.6493697753
29.0560502642
27.8131739745
25.5399430449
24.0775539629
22.4834962182
20.1332347846
17.6373965669
15.1703999937
12.7215288494
10.4277858581
8.57135027212
6.41182727245
6.34704717653
9.20738074493
14.6336100038
18.1977429253
16.7853536877
14.5343887513
12.5743988288
11.912884362
12.4173036478
13.634272332
13.108098016
13.0349861858
12.5769627736
11.440091554
9.64305895095
8.13367833389
4.21503606727
3.29598879369
2.92435916075
3.44978859237
3.79248490222
4.40607780938
4.89429109341
4.9193465034
5.13391109553
5.84700607399
6.81826588993
7.89723503536
8.98432102886
9.98121538184
10.898111978
11.691040759
12.6630798428
15.2128894944
17.2158140753
17.7441622962
17.3512667936
16.4077531578
16.735293303
17.9306088653
19.0856123319
20.185916172
21.2969402234
22.3025642016
23.2147080033
24.1206093892
25.0510697272
25.9561300362
26.8938451573
27.3914253558
27.5364129136
28.1006891222
28.2015226545
28.2921023253
29.0110941795
29.2557112344
29.2248154595
29.5918541005
30.42477084
31.2485491437
31.7392464349
31.9346202579
31.9213806513
31.7416840222
31.4155168387
30.9460361476
30.3536933119
29.6367417865
28.6823029105
27.3652834562
25.9193770673
24.4276279046
22.3990210713
20.0511283898
17.6198345573
15.1789918564
12.800407135
10.5910766637
8.47916419888
7.02320391478
7.78046159716
11.6328532938
15.6920734391
17.6485786177
17.6292530388
15.9841493217
14.3048100526
13.653218314
13.6134654904
12.9914224802
12.4506744548
12.5058329546
12.2435623296
11.3276920345
9.73778654291
7.30409034155
7.51002183747
3.3734264085
5.57255276324
3.82829849565
3.99249375266
4.71952655445
11.9445109863
10.3671298744
5.64685132513
5.80714131833
6.80866351823
7.91778491067
9.02634411997
9.99837533735
10.9206581317
12.5951969628
14.664825359
16.3792478229
16.951737887
16.2113299847
15.736833261
16.2276738547
16.9713732758
17.9241723239
19.0723472987
20.2645899579
21.4045059475
22.4351967401
23.3290787983
24.2500913116
25.1175965255
26.1320320911
26.8894518883
27.6345242921
27.7633586771
27.7124245145
28.2711684881
28.4517955703
28.6573617128
29.0581099859
29.4253403024
29.8997554635
30.5937608718
31.2972782783
31.7835403811
32.0171140871
32.0395884022
31.8871049033
31.5811412443
31.1307699664
30.5421223698
29.7970916358
28.8327464638
27.6065059049
26.1744238463
24.4970655633
22.4472428884
20.1089875469
17.6745292163
15.2621220919
12.9677746112
10.9079226567
9.2807247265
8.66528487602
9.36025390443
11.435804901
16.1794185039
19.3956731232
19.4303409762
17.6961514745
15.2989090276
13.6874565493
12.9233732065
13.148988279
14.6471778328
14.6447205879
13.3739391279
13.2880404221
16.6276231431
13.0072872649
11.0064509719
5.80550061628
7.66622073073
4.6731061726
4.99400344632
6.74520865159
11.8428743485
8.43804477834
6.17614487347
6.33509364918
7.02599025617
8.05617662761
9.17631033873
10.6154744843
12.8277247873
13.9053007226
14.4236647792
14.6634270462
14.7551878327
15.0870597708
15.7793781381
16.3514924728
17.0280494923
18.0162534858
19.1686273677
20.3722343723
21.5382115104
22.5446236677
23.5457759672
24.3551794462
25.3767445057
26.1737239456
27.4199304046
27.5757275511
27.452889479
27.7896075232
27.8814318479
28.2432578974
28.724195232
29.204943045
29.659508326
30.1680632459
30.7880404627
31.410231372
31.8810864651
32.1398752046
32.1943669492
32.0695818955
31.7867626927
31.3571814849
30.7803837758
30.0351965795
29.0814130052
27.8911587215
26.4538136968
24.7062460722
22.6031783821
20.258830549
17.8570506468
15.5414463343
13.44894953
11.758166026
10.7320377593
10.6479736121
10.8261245296
11.9956465539
15.9116034661
19.5743955214
20.7928143545
19.5452217351
16.7296841983
14.2081726785
13.8816124413
16.204384019
17.1178083558
16.1194989959
15.2449454248
17.9640485028
21.0139968489
16.2895280247
15.4000525932
10.0845306835
9.2688858652
5.8272042032
6.32899075861
12.1330968926
11.6321203797
6.99092561531
6.80555388374
6.98093728727
7.38153640163
8.28739624872
10.8380326125
13.9581470475
14.4827697178
14.2749888373
13.6275227403
13.567176595
14.145059099
15.1790670451
15.7404881276
16.2611379443
17.0993108969
18.1534012474
19.3306871919
20.4708691549
21.6437368779
22.8643078564
23.6469867954
24.8015307706
25.4315230623
26.8826054698
27.2367925227
28.09521678
27.631367716
27.3095583881
27.6597365826
28.2589909084
28.8579414141
29.4003893715
29.905365896
30.4340459704
31.0159435706
31.5859894569
32.0395606596
32.3128773285
32.3938257687
32.2960553345
32.0391787518
31.6354719937
31.0818158005
30.3566710748
29.4258263824
28.2531304165
26.795572895
25.0009892034
22.8844040911
20.5867136949
18.2953170159
16.1758935354
14.3989131959
13.1466632936
12.6394189536
12.9184656886
12.1861557513
14.0174734827
18.0154132836
21.0365838979
22.1610268685
21.1277959582
17.6879835849
15.4208978416
17.2032622242
19.422879176
18.9133287715
17.9513382928
18.0647477316
22.7162686486
24.333442882
19.2880927586
19.0923420731
12.2244535428
9.2141319059
7.07957508907
6.63589976595
12.1100735534
8.68065377688
7.29220285455
7.42784217613
7.5859477705
8.30382696565
8.86467751495
13.5962072962
14.374652325
14.5055244737
13.3926047409
12.7133891716
13.2089257708
14.5741384814
15.1241831267
15.4711948892
16.2705661691
17.2054026368
18.2627832056
19.4368744105
20.7348242823
21.9758880296
22.8889564152
24.3363721059
24.8951006855
26.4397287194
26.6670057547
27.7792945677
27.6357444567
27.426863962
27.177619802
27.6332844726
28.3522060298
29.0298904609
29.6176428547
30.1599689094
30.7084212376
31.2750329896
31.8155115355
32.255971056
32.5385732446
32.6413947057
32.5706116379
32.3442638249
31.9746226293
31.4565751293
30.7662460994
29.8657772189
28.7076840322
27.2409736489
25.4412617862
23.3723233199
21.1981676148
19.1074413169
17.2550436079
15.7735266022
14.8214687882
14.4393848415
14.1484984771
14.140936716
15.9342801254
20.8452860689
22.6439771199
22.6651160699
21.4315527581
19.0541479594
18.6626714761
21.1414944262
21.5356948015
20.7073979917
20.1473855619
22.1945139256
25.0153125738
26.5267633053
21.9092990595
20.7682475369
11.9876420256
8.96705397904
8.25460321516
12.3303760214
12.2637263048
7.86595796731
7.97549126766
8.14589099287
8.24357306073
8.84284811413
13.3154614693
14.2887125276
14.4665320133
14.1093801237
12.3534090893
12.3556133256
13.9256794655
14.6837118829
14.7917105446
15.3483388228
16.3006756491
17.3604420744
18.4515526824
19.6744774973
20.8277977197
22.2839721489
22.9637088289
24.3548632836
25.9533849639
26.5817284436
26.4054795696
27.3211104509
27.6760333159
26.9975881426
27.1845072243
27.7834376327
28.5098963927
29.2168887627
29.8477636084
30.4277674245
30.9987348516
31.5661169482
32.0942369937
32.5277766346
32.8179358929
32.9406088832
32.8986900186
32.7091603763
32.3833506504
31.9135693141
31.271798059
30.4134628985
29.2844540208
27.8425684922
26.1000200762
24.1604562076
22.1924989474
20.341428053
18.6878284943
17.334798051
16.4599947821
16.0716155688
15.9968285567
16.3113589963
16.3515582337
21.4278066623
24.7196669932
24.3559572892
23.5227940854
22.374047665
22.968694497
24.1628239332
23.3910491252
22.6975378945
22.9522624904
25.3969063391
26.1491940594
26.7951127862
23.9122553942
21.767694915
11.330986479
8.97620405078
8.93715984807
13.3355312603
11.3500516716
8.56092420851
8.71862942013
9.02209966539
10.1255212874
8.99056305687
14.0854813544
14.8344870106
14.524821801
12.9902790044
12.0636183764
12.4900870628
13.9854105144
14.4283875453
14.6882094778
15.3619752726
16.2970676394
17.4228786314
18.6062523037
20.1956596464
21.5423648785
22.2569086934
24.1607480612
24.2855441135
26.107800061
26.142192627
27.3603081423
26.769480121
26.7276151619
26.9333860251
27.3603791677
27.9870251226
28.701889797
29.4212918818
30.0913342758
30.7131322725
31.3119695744
31.8903866199
32.4191172601
32.8532880413
33.1521378267
33.2953253396
33.2865179824
33.1417208382
32.8703995414
32.4623801493
31.8855223182
31.0899323107
30.0225043849
28.6616938693
27.0577073134
25.334901211
23.6190975706
21.9377824277
20.2932199334
18.9207797261
18.179126788
18.1120741866
18.3542932752
18.5172778789
18.3716042508
19.2885513116
25.2508946425
26.5582061035
26.1763594162
26.4354156369
27.1338099243
26.5025023226
25.3189651379
25.0785612101
26.162597549
27.5041491487
27.4673941735
26.9339606972
25.954351227
24.6004055199
10.8868992686
9.48176157851
10.0878185152
13.4349198948
9.57188268336
9.58870452732
9.46780863571
9.74887644495
12.6728035262
11.4792340217
14.9205831129
15.129001257
14.6306115672
12.4008443397
12.1274635652
13.6727562924
14.1993223569
14.2041957497
14.651780066
15.4968678688
16.4169760298
17.4879703719
18.5323140492
20.3279955486
22.4600610339
22.2102925618
24.104939293
25.4968469977
26.3259762059
27.1090371548
26.7621732849
26.9589476645
26.484458124
26.8643480979
27.5288326814
28.213003757
28.9220761475
29.6459498082
30.3485641688
31.0157178603
31.651552894
32.2508935756
32.7895714928
33.2315964437
33.5435308147
33.7105005151
33.7403798907
33.6495580874
33.4447943646
33.1137825284
32.6228548589
31.921589423
30.966328005
29.763264562
28.3919345569
26.9556858846
25.4521688626
23.7355352488
21.9407759853
20.7001221976
20.4417887618
20.8966260832
21.3240269263
21.3443030278
20.928297646
19.5476416869
18.9486905518
28.5626762276
30.9822803967
31.4658888134
30.7972103898
28.8925847041
27.6297745227
27.8189819778
29.1318755116
29.6852924301
29.6336607638
29.4788354693
29.9038162774
30.1350580917
10.9612017513
10.3750531196
13.4187332251
13.6716602725
9.78124009124
10.3743724411
10.2168635222
10.6594421454
12.2803692087
14.8799921025
15.7888690098
15.4387823801
14.9193712652
12.4898196172
12.2993607677
14.158946771
14.3186115275
14.1938579503
14.6709109918
15.6145643995
16.7441055183
17.8345565695
18.6931099364
19.9617942806
22.6130638938
23.9007722302
23.7962874274
25.5931107196
25.3779912574
27.1170433431
27.6402508755
26.9349197244
26.4737261073
26.9745719063
27.7244564101
28.4487044198
29.1661757329
29.8960778136
30.6224141611
31.3342092984
32.0172109493
32.6489672709
33.2065681101
33.6633695512
33.9943366111
34.1916870313
34.268138551
34.2407486659
34.114754074
33.8779797691
33.4993807174
32.9352434683
32.1605305356
31.210381757
30.1647326044
29.0210103791
27.5549598408
25.6194656295
23.8745910784
23.2027673831
23.788253057
24.8315977566
25.3722484531
25.2316247334
24.402341996
22.6745148393
20.2178129147
20.2908032043
32.6551717295
37.3007097343
35.3557741482
32.0875622876
30.5478243585
30.8077813525
31.8558620852
32.6064541107
33.2929917394
34.0526673178
34.7772275098
35.5126408051
11.3969381711
11.2868334777
15.0853240379
14.4568454125
12.6637519296
11.6265873152
11.1981808805
12.103260771
11.8508228124
15.8552596128
16.4859752252
15.8294720583
15.0790055025
13.1695990026
13.0581061975
14.605549167
14.3674828788
14.2905265753
14.7802522108
15.6457514585
16.8673397151
18.2783240628
19.9935968803
20.0672570664
22.1229214308
24.2456308136
23.7188070357
25.811807444
26.8161577002
26.430392441
26.8642568316
26.4475005194
26.747641701
27.2863715122
27.9756464707
28.7060553204
29.4378805441
30.179255016
30.9202524349
31.665929114
32.4037158576
33.0857485669
33.6729341075
34.1502010784
34.5075281954
34.7448250314
34.8778063958
34.9234851179
34.8876284335
34.7623719347
34.5255352017
34.151640039
33.6445625048
33.0526558401
32.3817867521
31.3940423143
29.7993561426
27.9331812817
26.6782325967
26.9939561569
28.9096971874
30.7604936965
31.4548801397
31.2941573539
30.3326321287
28.2941235056
25.1006799258
20.6634806013
28.2580400576
38.5126057024
40.6975618687
36.5185974939
34.4548432187
34.402285098
35.3967005488
36.4837296676
38.1350888225
39.3077118081
39.4103396925
39.7188713076
12.0525681057
11.9695853787
14.8825281243
15.0021712123
15.0410072157
12.8171683221
12.3085724184
14.8910674401
12.2973975328
16.7226746215
17.0196733257
16.2282202312
15.232285437
13.8298548276
15.5107650725
15.6442109505
14.5946745898
14.5251717021
15.0246112293
15.772498745
16.8130585812
18.2665062859
21.1865493665
22.1695370654
21.6488152927
24.27917324
25.3432708771
25.4060596567
26.766343474
27.3558134975
27.1581601383
26.4919043514
26.94551421
27.6052720431
28.281516753
28.997174389
29.7294638866
30.4934966493
31.2645034437
32.0304246946
32.8073365268
33.5494189175
34.186956901
34.696202614
35.0874450408
35.3758326262
35.5774622344
35.7055521712
35.7679389983
35.7671794919
35.7011534361
35.5796310457
35.440342186
35.2940694515
34.9280789223
33.8386988242
32.6047835769
32.1575207542
31.3250952819
32.655542051
34.3365046871
34.329024223
32.9478800654
31.325488533
28.5089577384
25.0224447263
21.6387481297
14.4953199382
14.0249172575
30.6172079167
38.2598673205
37.0621492876
32.5221094865
32.1598369473
35.7975767056
40.0534739502
43.441953212
44.8026764728
44.9460933051
45.2218395299
12.7628889036
12.7042636837
12.3536704711
15.3659799849
15.619153869
13.6434077041
13.3030614661
15.9198173105
13.011131546
17.6273146764
17.5063457616
16.6409302533
15.4863321067
14.1816675017
16.6547057185
16.272384934
15.0780722991
14.9411923914
15.3773249909
16.0691908368
16.8813419514
18.1376516052
21.6550431748
23.2295267741
21.9846849322
24.2668399155
25.831626225
24.9880683564
26.3794548695
26.9653664133
26.3977680822
26.8238674474
27.372048625
27.9756522867
28.62012946
29.3378457123
30.0721437935
30.8239135648
31.6277156204
32.4434592032
33.2542697259
34.0422009761
34.7378119104
35.2976253884
35.7380623182
36.0918636345
36.3749878154
36.591380244
36.7540183784
36.8833619603
37.0091330916
37.2062897292
37.5373028434
37.8678868993
37.5062252507
36.2077464287
36.7216747067
31.5496905828
26.4140132869
20.0981164901
0.0357998168874
7.27013640898e-06
2.51802756078e-08
2.56908782045e-09
2.03872331278e-10
5.74267224455e-11
6.75955732138e-10
6.90659843104e-09
7.80173224966e-08
2.03774044092e-07
0.000338382682809
0.0888237983809
29.6017287503
43.6157743519
43.051367135
42.2477395028
46.0445313354
49.782485017
51.7260961229
52.1229537958
13.6518800087
13.7490316981
16.0196251209
16.0509226269
16.1160010801
14.3502485541
14.3674174483
16.8168077957
14.0604025347
18.4224493799
17.9776153276
17.07968746
15.8227321603
14.6006719003
16.964925255
16.5316609748
15.5554776083
15.4198800937
15.7748963347
16.3897056945
17.1248658214
18.1287321734
21.1121160936
24.0262976356
24.2454554423
23.6915736402
26.0212095824
26.9543067012
25.4279209065
25.6659032222
26.3370199862
27.0513866511
27.7226996789
28.3581216726
29.0138715835
29.7079616165
30.4483180992
31.2207461531
32.0201121126
32.8774895214
33.7473871295
34.5827377956
35.3286849979
35.9464467294
36.4568292829
36.896551731
37.2759209201
37.5885603365
37.8419503948
38.0801536002
38.4094240194
38.9883982151
39.8668365133
40.5716663291
39.7496872518
36.2635537542
24.0585932274
8.53892898472e-12
9.39193639515e-15
1.76065232589e-16
2.9844263474e-18
8.63468589589e-21
2.45378924709e-23
4.24746274291e-28
3.32237795944e-28
8.06596969123e-28
5.43710129277e-27
2.54670788982e-26
9.40755165733e-26
5.97835206154e-25
4.68091620923e-25
4.0609493082e-23
2.31135869917e-20
2.32340869546e-18
1.76307471664e-16
4.05993504244e-14
6.83414824353e-10
49.2591819818
56.8595997982
56.2171940808
14.491269274
14.6846651875
17.6544029275
16.77454355
16.3056586993
15.0562990187
15.393913708
17.5906292971
17.5667829012
19.41476602
18.5183712866
17.615345707
16.2489359304
15.1604925116
17.2945139303
16.7220771571
16.0056228162
15.9040284337
16.1826724408
16.7111369523
17.4053885658
18.344439784
20.6298439965
24.2713319045
25.5763414491
23.4876885957
25.5154264989
27.0370536178
27.0279487699
26.0506982454
26.4007692241
27.2572784385
28.0698845658
28.7798301461
29.4069857851
30.108797525
30.8493840709
31.6449785166
32.4699527201
33.3484782609
34.2746519212
35.1750344878
35.9683063798
36.632629751
37.225725632
37.8018116676
38.3212980772
38.716191019
38.9877073756
39.3015041501
39.8643917689
40.8454444352
42.3094560824
43.2911039018
33.4021036425
6.86538704607
4.72194807887e-18
1.912161098e-20
5.52966035828e-22
8.05017185041e-24
6.54059451215e-27
1.09136087388e-29
7.69305288612e-31
0
0
0
0
0
0
0
0
1.06997246291e-34
3.60879560765e-32
5.39798901931e-30
3.13174036319e-27
4.37427270543e-24
2.36878046792e-19
3.59727909899e-15
2.8045765739e-08
61.8280549818
15.1775255386
15.3926719251
19.7719800006
17.3441948849
16.2577368528
15.6783582844
16.1369390857
17.711806777
19.1537308812
20.5484593817
19.2150888358
18.2873352188
16.9252974139
16.0051570091
17.8294456448
17.0606293232
16.5285374621
16.4331630488
16.6289137085
17.0696488892
17.6894973854
18.5576736164
20.4294826213
24.1351363005
26.5487974108
25.8917585863
25.0150115293
26.3976437629
26.8268666274
26.122007275
26.8226126869
27.6979795577
28.5560744156
29.2512562909
29.9003984161
30.5489279979
31.3022531764
32.1009914724
32.9589502944
33.8701005034
34.8340858201
35.8030742377
36.6812143568
37.3943649537
38.0659702048
38.7985564242
39.4825903735
39.9368830647
40.1885572916
40.5521208958
41.3239365031
42.6125536231
44.4163240769
33.7313940172
3.12692637859e-14
6.8362983791e-21
2.24200821019e-24
9.06575524269e-26
1.23608843641e-27
3.38969042582e-30
0
0
0
0
0
0
0
0
0
0
0
0
0
1.37865939624e-33
1.36999793618e-32
3.00333231197e-31
1.45627430791e-29
8.08702539298e-26
6.73134562891e-17
1.29757552275e-21
15.7099508109
15.9161648102
21.7999853776
17.7833872014
16.4397788688
16.2495835685
16.9419360308
17.1704624917
20.0965690288
21.3613495477
19.8859953594
18.9720016084
17.7929455508
17.8394332107
18.5770929203
17.6385747093
17.2437483658
17.1531322987
17.1828478834
17.51403728
18.0261685793
18.8125659861
20.4103366728
23.9737890647
26.9457292697
27.5058810778
24.9323640125
25.4244385405
25.7223255277
26.2190160856
27.1178277033
28.1610741658
29.0309643283
29.7690800783
30.4424096927
31.1498714772
31.8214611044
32.6209320992
33.4921736882
34.4208283963
35.4569224677
36.5080871257
37.4556691771
38.1695121728
38.8661893033
40.1183797767
41.6813032971
42.3054905401
41.7966372085
41.9930977302
42.8680343539
44.1945529711
33.0066381913
3.61764683266e-15
5.45226766993e-20
2.44597300179e-31
2.47168601957e-28
4.03311043007e-30
0
0
0
0
0
0
0
0
0
0
0
0
0
0
0
0
0
0
2.12998554417e-32
1.44239102962e-31
2.65988864589e-29
97.6582039843
16.1641767054
16.3365401806
21.6646811375
17.2960994519
16.6825702024
16.7414920596
17.8510126206
17.2285341154
20.8993135057
22.1124173585
20.5180175955
19.6029906717
18.4707015956
19.9973807442
19.6040102285
18.4167417242
18.0654149072
18.2122507864
17.9571270438
18.1265255101
18.4615730667
19.114162286
20.5298104643
23.8015051916
26.8031905908
28.5818502058
27.4475556013
26.6529109934
26.5389814192
26.4357329047
27.3858078068
28.7388453591
29.4791743471
30.2978114909
31.1919576791
31.7574104328
32.4306119911
33.2395547253
34.1338633486
35.077560994
36.0933928065
37.2100956175
38.2947715644
39.3376903774
40.4952050597
42.0744245221
43.4316548065
43.6858797648
43.7417493798
44.247986248
45.2752539781
36.4874776276
1.64516462192e-14
1.5017067717e-19
1.97372695404e-23
2.68069951157e-25
0
0
0
0
0
0
0
0
0
0
0
0
0
0
0
0
0
0
0
0
0
0
6.55393118235e-32
4.77030254947e-21
16.6749469791
16.8231218184
21.3326886488
17.0232688258
16.9957080914
17.1417390377
18.6342171284
17.7206935418
21.6075111194
22.8487733067
21.1412766769
20.2275080015
19.0345028678
20.7731162677
20.5529791215
19.2580282391
18.8733369557
19.1174097211
18.8797664757
18.9562943354
19.0922150751
19.4734227986
20.809119252
23.7635641951
26.5089968494
28.8777854492
28.6196898924
27.2339961247
26.1204372992
26.9051630834
27.851572492
29.1721676707
30.2577116223
31.2106799941
32.0147223526
32.4769274138
33.1248601803
33.9466596246
34.8625646826
35.8462043609
36.882305861
38.082498256
39.4581680028
41.0197244555
42.1701339339
42.8851316165
43.8800556383
44.7132235369
46.1109031255
47.6469278319
41.8338253282
1.49906489958e-13
1.99047200169e-19
3.4324669158e-23
7.04016640744e-26
1.70455971235e-27
5.7216283601e-30
0
0
0
0
0
0
0
0
0
0
0
0
0
0
0
0
0
0
0
0
0
1.10141017795e-32
1.45726626594e-32
17.4210160734
17.5687065593
21.0501396142
17.3336627376
17.5594396098
17.6355426162
18.6870797764
18.4502805983
22.1310253414
23.5497678962
21.7938737509
20.8951940366
19.7069102846
21.472770144
21.4015599104
20.175313688
19.7305255481
19.9947935152
19.7810367763
19.9282222768
19.9856063372
19.9891825472
21.2813015536
23.9259184844
26.3615405338
28.9402463936
29.1688642784
28.0234875941
26.6450877478
27.1229440917
28.4118469071
29.3584679798
30.3365122584
31.4813038118
32.9162596836
33.5009332726
34.067329611
34.7654186412
35.6481721636
36.7066873866
37.8539172068
39.1867545767
41.1364461011
42.8717978034
43.3898162305
43.9790931638
45.486676633
48.6205093019
52.4693312932
45.6547574037
4.2828751047e-14
7.11460752032e-21
2.94419096443e-25
9.65303592613e-29
6.05676236497e-31
1.22765664722e-30
1.88522250782e-31
0
0
0
0
0
0
0
0
0
0
0
0
0
0
0
0
0
0
0
0
0
8.14084586888e-34
3.69651889964e-33
18.542818023
18.6535864128
21.3795658507
18.2764163159
18.7082948939
18.4942750308
19.0346379739
19.7456754178
22.2290578909
24.0867951304
22.5044323996
21.6283427447
20.4804718939
22.2677195353
22.2750376192
21.2455539366
20.7605654903
21.0094999708
20.690013993
20.9930059553
21.1783358939
20.7213798108
21.8348397628
24.2929031974
26.4141046577
28.7962154147
29.4119169564
28.7087545741
28.5512332747
27.9654414649
28.7854237775
30.0835956677
31.6066310814
32.0740573305
33.2176167814
34.5122598274
35.1306414624
35.8845087694
36.6756055265
37.6574179717
38.9412393492
40.9479192332
43.4805672511
44.5263331734
44.6457083455
45.9775354481
50.2700128463
57.5975382691
51.8294623677
15.1558239236
1.07790144388e-22
1.00636797238e-27
6.88590141804e-30
0
0
0
0
0
0
0
0
0
0
0
0
0
0
0
0
0
0
0
0
0
0
0
0
0
0
0
20.105195225
19.996037673
22.226578634
20.1362344518
20.6309751957
19.7547009218
19.9882053685
21.6092395847
22.4874005249
24.7239822871
23.3238207883
22.4366578619
21.3300732164
23.0991564087
23.14399083
22.4206807932
22.2473616327
22.3275502722
21.6923512142
22.1471769873
22.6582910114
21.7522323883
22.2815448984
24.752932592
26.6747813951
28.6790232945
29.5730226692
28.8925934181
29.7282098975
29.5248054606
29.8091773245
29.8667107746
31.4117634145
33.2377900499
34.1675699538
35.2724658529
36.1937156556
36.9866198078
37.9068507361
38.9129949196
40.5836082205
43.5712465199
45.8006273747
46.3672279064
47.109898286
50.4961101596
57.8119742431
54.8332897145
30.3101397801
9.61937922764e-25
1.68167052175e-27
7.70015490057e-30
0
0
0
0
0
0
0
0
0
0
0
0
0
0
0
0
0
0
0
0
0
0
0
0
0
0
0
0
21.7530433881
21.2562941105
23.1328700141
22.5863188104
22.326406652
21.2036905922
21.0309614341
22.7414091631
21.8242061936
25.2271800768
24.2341211943
23.311760599
22.2449928949
23.9390741546
23.9507868676
23.4058373646
24.2689394853
23.9063798877
22.8109801694
23.4079979241
23.9879329003
23.0618703734
22.4883423254
24.7633217054
26.8585138295
28.5975997031
29.6329808565
28.9777450851
30.1308463084
30.8006815464
31.1867397571
30.6445178395
31.6147063488
33.2099950091
35.0753473825
36.4820595464
37.4819525648
38.2525792558
39.1589016529
40.5399367793
43.3285435576
46.5508620669
48.3405933915
49.3583680243
51.6966698989
56.6311088697
52.4993543044
30.3039714567
2.59010118425e-24
3.74971792614e-27
1.3132235561e-29
0
0
0
0
0
0
0
0
0
0
0
0
0
0
0
0
0
0
0
0
0
0
0
0
0
0
0
0
0
22.5745826434
22.1315145674
23.7098363329
23.6344072346
23.3872443726
22.5631988573
22.2110294009
24.1011356249
22.8704881681
25.8615726445
25.1541862094
24.2252011582
23.2199310712
24.8021865413
24.7592841145
24.226999929
25.2464159095
25.0220733476
23.8850040995
24.6338746829
24.7436042787
23.8931302202
23.4782709147
23.7136532926
26.3448013718
28.0869325699
29.4058113171
28.9296731018
30.1955377269
31.3516431285
32.3231313437
32.4075843706
32.0290342035
33.2806992271
35.3156069618
37.3558967955
38.8830813332
39.9084675163
40.8101608629
43.1665926794
46.7442340494
49.6586366798
51.2869679187
53.2546589551
57.2666075903
53.7901466378
26.5089794904
3.62413292121
1.23257656102e-26
3.51044185743e-29
0
0
0
0
0
0
0
0
0
0
0
0
0
0
0
0
0
0
0
0
0
0
0
0
0
0
0
0
0
0
22.6697100092
22.6646084515
24.0507272319
23.8566361882
24.0509846858
23.609395188
23.2319502245
25.4372179204
24.5255795919
26.6634807586
26.1262527845
25.162496286
24.2501399448
25.7037984733
25.628882318
25.1661576039
26.0603600317
25.9892362189
24.9937600616
25.6571737928
24.6684607649
24.6533996107
24.5040691203
24.7608487796
25.5698459853
26.6411437401
28.5349918973
28.6653355599
29.7751279158
31.3712949541
32.7753712463
33.7507868318
33.5367872731
34.0717586564
35.5431032
37.5728514209
39.8047857914
41.6321089973
43.2215790516
46.557526837
50.1837099447
52.6296777237
53.9709566381
55.8843375915
51.5570189555
33.6991718118
35.6674009289
4.28142335526e-26
9.59078882477e-29
0
0
0
0
0
0
0
0
0
0
0
0
0
0
0
0
0
0
0
0
0
0
0
0
0
0
0
0
0
0
0
22.902833132
23.0274492778
24.3303968698
23.0273117883
24.3289354581
24.1798092034
23.9090637759
26.0532092545
25.372793595
27.4659048977
27.1214620714
26.0914170336
25.3407542713
26.6310512262
26.5346690006
26.2336313494
26.971118804
27.0657849274
26.228705143
27.0571475143
26.0065560104
26.2426783182
25.7580078916
26.0627379598
27.3128517057
27.9471682196
28.1320563524
28.3225606291
29.2949492447
31.2619183952
32.7285717694
33.9803889352
34.7956130937
35.1550013104
36.7934344661
38.2935166008
40.5495316478
43.220214528
46.1915286457
50.175770612
53.4406442739
55.1479618297
54.7713965345
51.6854883131
48.6907247275
30.3657480228
3.59265456402e-25
8.17885391357e-28
0
0
0
0
0
0
0
0
0
0
0
0
0
0
0
0
0
0
0
0
0
0
0
0
0
0
0
0
0
0
0
0
23.5661557995
23.6551553544
24.6243377864
23.4057224007
24.5652876251
24.4859413529
24.3710323542
26.2603447244
25.9488287638
28.0537634756
28.0789997056
26.9515728705
26.4762972023
27.5352083538
27.3927006535
27.2618511441
27.8478940349
28.2211770316
27.5100119747
28.4804335938
27.7630046828
28.2489965648
28.0920084696
27.0945616236
28.1142153988
29.0399932444
29.2359161984
28.088014764
28.7441907439
31.0951835945
32.8020914551
33.6379380485
34.6119888885
35.4518017061
37.1648050433
38.9396384795
41.3960398053
44.8164927477
49.3406115663
53.8845192897
56.4681572577
56.7643085008
54.4255756657
49.2248785931
31.1457854496
33.9765350351
5.69934694049e-27
2.31109785556e-29
0
0
0
0
0
0
0
0
0
0
0
0
0
0
0
0
0
0
0
0
0
0
0
0
0
0
0
0
0
0
0
0
24.4051427242
25.3916776228
25.0570686469
24.3087470873
25.0600785841
24.8365038427
24.8017221776
26.4234249782
26.4594224038
28.2964157745
28.9875948401
27.7021834691
27.4696054748
28.2675290427
28.1816952276
28.0350328121
28.1986207365
29.2605822232
28.8370929523
29.7192456995
29.6475882568
29.5897955982
29.5017930561
29.1647506066
28.5312847884
29.2330580438
30.1220244581
27.6087498622
28.1624383079
30.3677257618
32.7665863229
34.0624888948
35.1523237947
35.3857831774
36.965018656
39.1217417544
41.8898851105
46.2889355798
52.4826666047
57.4491396207
58.9900313467
55.3339051719
53.2938319202
53.0433167913
35.3872268615
3.86306905607e-26
9.85948140186e-29
0
0
0
0
0
0
0
0
0
0
0
0
0
0
0
0
0
0
0
0
0
0
0
0
0
0
0
0
0
0
0
0
0
25.0149483233
26.0433611353
25.6946496448
25.1053557888
25.6873397445
25.3371092307
25.281646053
26.6463236854
26.9391850471
28.2700623944
29.775585079
28.3951188866
28.0585054208
28.8502521429
29.0017238499
28.7116504815
28.4648070537
29.9952711228
30.1690630335
30.7909527494
30.9570876761
31.1812520785
30.1709655855
30.1992260404
29.7601334718
30.7651421556
31.3839717945
29.1138314521
27.6154147232
29.2712172836
31.9433539292
34.0812463333
35.3261218874
35.8065907031
36.5043095708
38.7327574116
41.7430667826
47.3830545283
55.4666230875
61.0435972939