/*--------------------------------*- C++ -*----------------------------------*\
| =========                 |                                                 |
| \\      /  F ield         | OpenFOAM: The Open Source CFD Toolbox           |
|  \\    /   O peration     | Version:  v1806                                 |
|   \\  /    A nd           | Web:      www.OpenFOAM.com                      |
|    \\/     M anipulation  |                                                 |
\*---------------------------------------------------------------------------*/
FoamFile
{
    version     2.0;
    format      ascii;
    class       volScalarField;
    location    "747";
    object      p;
}
// * * * * * * * * * * * * * * * * * * * * * * * * * * * * * * * * * * * * * //

dimensions      [0 2 -2 0 0 0 0];


internalField   nonuniform List<scalar> 
6400
(
0.145061392006
0.145064647185
0.145073970288
0.145092275555
0.14511963938
0.145156061073
0.145201508172
0.145257082531
0.145323906194
0.145403809197
0.145503117034
0.145625211234
0.145767497223
0.145929883392
0.146114317077
0.146323446732
0.146559100651
0.146821344385
0.147108006257
0.147413604689
0.147732620531
0.148066760354
0.148423793174
0.148811776347
0.14923565931
0.149695331654
0.15018731512
0.15070891319
0.151259606683
0.15183992838
0.152450197753
0.153088356023
0.153748316582
0.154423861362
0.155112049056
0.155810184649
0.156518662586
0.157243130034
0.157982081626
0.158726637786
0.159477475269
0.160246355091
0.161039102849
0.161847528067
0.162660246523
0.163469094344
0.164267816323
0.16505146706
0.165815500779
0.166555887601
0.167269180849
0.167949652478
0.168587992209
0.169173097305
0.169702377919
0.170179533819
0.17060012683
0.170954718107
0.171241057408
0.171466457413
0.171637865927
0.171759950254
0.171837820747
0.17188779154
0.171927699311
0.171967030565
0.172000032229
0.172017410492
0.172018112695
0.172006599614
0.171986403069
0.171959135874
0.171925757834
0.171890051236
0.171853195733
0.171817791219
0.171785953504
0.17176398798
0.171749324079
0.171743031626
0.145056682597
0.145060154365
0.145068662257
0.145086536967
0.145115396413
0.145153267838
0.145199186405
0.145253010502
0.145317792809
0.145397452832
0.145496401624
0.145617472657
0.14576004468
0.145923364282
0.146107948085
0.146315701499
0.146550561127
0.146813452934
0.14710139604
0.147407491801
0.147724571172
0.14805661987
0.148413069708
0.148801097673
0.149225458313
0.149685877576
0.150178211408
0.150700423735
0.151252065375
0.151833136532
0.152443544598
0.153082159843
0.153743090343
0.154418764588
0.155107061214
0.155805480733
0.156513935144
0.157238954662
0.157979127903
0.158724682119
0.159475200614
0.160244797154
0.16104073415
0.161851607925
0.162665654054
0.163475968725
0.164276270973
0.165061826137
0.165827700946
0.166568707106
0.167281362181
0.167962997892
0.168605811949
0.169193174745
0.169724188961
0.170204011485
0.170623319166
0.170975184946
0.171261002865
0.171485434095
0.171654142827
0.171775295572
0.171853568331
0.171904762254
0.171946398823
0.171986560277
0.172019226559
0.172033798172
0.172031167798
0.172016725177
0.171993881559
0.171963983941
0.171927542473
0.171888179396
0.171849230268
0.171812829451
0.171781839457
0.171759389689
0.171744538961
0.171739453764
0.145043370618
0.145049075671
0.145056863722
0.145073341156
0.145101247658
0.145143218088
0.145192662798
0.145244951602
0.145306729866
0.145384698551
0.145482796729
0.145603313205
0.145746175129
0.145910310267
0.146094938254
0.146299316272
0.146531754903
0.146799161547
0.147090063513
0.147394717407
0.147707655268
0.148034646424
0.1483901623
0.148780465379
0.149205793258
0.149666175878
0.150159725207
0.150683742554
0.151236974489
0.151819356967
0.152430623707
0.153070335575
0.153733308649
0.154408782217
0.155095994064
0.155796016958
0.156504906681
0.157229480931
0.157971074705
0.158719973656
0.159476546315
0.160250832229
0.161047280365
0.161858494648
0.162674293994
0.163487023093
0.164290520058
0.165079552851
0.165849103826
0.166594428026
0.167311490979
0.167995355206
0.168637329983
0.169228276285
0.169766495257
0.170248383694
0.170665977981
0.171016183336
0.171300485065
0.171523022106
0.171690104224
0.17180859283
0.171886649429
0.171942084773
0.171989858073
0.17203143005
0.1720594067
0.172067771832
0.172058971789
0.172038459092
0.17200958833
0.171973212559
0.171931098756
0.171887089119
0.171844188487
0.171805326783
0.171773610533
0.171750376641
0.171735591978
0.171730086357
0.145024156638
0.145030048545
0.145036829978
0.145052071316
0.145076738724
0.145118649546
0.145180478102
0.145233002244
0.145290318395
0.145365341187
0.145462014312
0.145582218913
0.145725749755
0.14588994608
0.146074450238
0.146282859054
0.146519230809
0.146783810991
0.147066378234
0.147360070909
0.147669081195
0.147999638893
0.148357667575
0.148748727494
0.14917521811
0.149637082076
0.150132510972
0.150658739647
0.151214260272
0.151798492659
0.152411785784
0.153053091225
0.153717688988
0.154396049607
0.1550811273
0.155778687016
0.156490984368
0.157216590806
0.157957357246
0.158710641689
0.159475391036
0.160256345573
0.161056058095
0.161869516032
0.162688345052
0.163504974719
0.164313050641
0.165107067759
0.165881922147
0.166632787382
0.167354962276
0.168042759387
0.168688634881
0.169285444141
0.169828602344
0.170312209395
0.170729780927
0.171078934075
0.171361381286
0.171581527398
0.171745988226
0.171863197083
0.1719455155
0.172009559519
0.172062446616
0.172101001813
0.172122778371
0.172122662793
0.172103665924
0.172072859749
0.172034438063
0.171989261712
0.171938983484
0.171885973789
0.171834732914
0.171791964281
0.17175932027
0.171733056142
0.171714854487
0.171707367276
0.144993938224
0.14499542884
0.145003752818
0.145019490123
0.145046916515
0.145086679078
0.145143751868
0.145200921904
0.145261733083
0.145337324382
0.145432890258
0.145553013257
0.145697809072
0.145867451002
0.146059347009
0.146268392632
0.146497737267
0.146749221174
0.14702098794
0.147311841621
0.147622167292
0.14795427555
0.148313991374
0.14870677077
0.149134896735
0.149598641984
0.150096140683
0.150625148639
0.151183623602
0.151770880388
0.152386301359
0.153031049656
0.153699543221
0.154376057797
0.155060228841
0.155756844476
0.156467821729
0.157196047174
0.157941068502
0.158700470952
0.159473340117
0.160261782315
0.161066743135
0.161884400155
0.162707829293
0.163529836118
0.164343957681
0.165144483818
0.165926193318
0.166684098346
0.167413063647
0.168107128517
0.168759338659
0.169362865455
0.169911377829
0.170397839616
0.170816380075
0.171165205894
0.171446423462
0.171665100343
0.171829059119
0.171948914053
0.172038491329
0.172109569815
0.172161562445
0.17219722796
0.172213128396
0.172202514292
0.172169107956
0.172122739328
0.172069944967
0.172011570104
0.171946969937
0.171878928643
0.171817537801
0.171768942649
0.171730325192
0.171695783149
0.171674193579
0.171666515683
0.144939305856
0.144939716858
0.144953104483
0.144969667821
0.145000205551
0.145042494138
0.145096238745
0.145154324641
0.145220206776
0.145298266291
0.145392532424
0.145513323652
0.145667122416
0.145845646017
0.146036884812
0.146239694552
0.146459046064
0.146701345565
0.146968124793
0.147256771585
0.14756537434
0.147897807564
0.14825942987
0.148654528283
0.149084902715
0.149550402009
0.150050695492
0.150582704376
0.151145224941
0.151736275886
0.152356072761
0.153002959797
0.153671448837
0.154351494696
0.15503293903
0.155726005667
0.156438536662
0.157171277605
0.157922191425
0.158688893098
0.159470337947
0.160267153534
0.161079152824
0.161903012003
0.16273280292
0.163561783415
0.164383500142
0.16519211339
0.165982295012
0.166748911429
0.167486577043
0.168189203653
0.16884993653
0.169461540561
0.170016475775
0.170507215227
0.1709284349
0.17127893027
0.171561404691
0.171781893083
0.171949461084
0.172075841579
0.172174016617
0.172246651414
0.172296675215
0.172327408457
0.172335472645
0.17231182644
0.172259540419
0.172191640646
0.172118468709
0.172039385652
0.171951845697
0.171864258627
0.171789220012
0.171729982167
0.171679630517
0.171637327548
0.171613370211
0.171603493949
0.144856244105
0.144862841409
0.144884378521
0.144908590051
0.144935621761
0.144978764463
0.145034601598
0.145095328498
0.145165122343
0.1452463123
0.14534498099
0.145469948856
0.14563179576
0.145809703814
0.145996362356
0.146191121003
0.146404091674
0.146643815806
0.146908421491
0.14719208541
0.147497972
0.147831113404
0.148194441966
0.148591409103
0.149024385477
0.149493874263
0.149995628109
0.150531217727
0.151098589913
0.151696712976
0.15232068799
0.152967982981
0.153637297415
0.154313455651
0.154994497647
0.155688528191
0.156404559447
0.157142907641
0.157900794012
0.158675688788
0.159466365518
0.16027254994
0.161093247881
0.161925266578
0.162763288922
0.163600972676
0.16443195493
0.165250352828
0.166050777883
0.166828001387
0.167576483886
0.168289983599
0.168961405971
0.169582897081
0.170146169128
0.170643676245
0.171070751894
0.171426868551
0.17171528168
0.171942485376
0.172117950104
0.172252920911
0.17235610807
0.172428552861
0.172482267925
0.172507572953
0.17249931057
0.172454605617
0.172377686648
0.172282652961
0.172181035118
0.172071360601
0.171952488644
0.171839177514
0.171743732592
0.171666800666
0.171601770897
0.17155482622
0.171530605517
0.171519481311
0.144757730863
0.144770269477
0.144794828961
0.144829068527
0.144859044314
0.144904345252
0.144958956437
0.145022999637
0.145097776442
0.145177376553
0.145284977976
0.145423185355
0.145583604197
0.145758176722
0.145938124926
0.146125811139
0.146337861393
0.146578039544
0.14683782904
0.147116557349
0.14742033427
0.147753693022
0.148118531479
0.148518432609
0.148954950773
0.149427667585
0.149933626462
0.150469625504
0.151044365103
0.151652025694
0.152278081628
0.152922971064
0.153590575497
0.154264960514
0.154945540485
0.155644452563
0.15636629734
0.157111133165
0.157876725606
0.158660635042
0.159461372391
0.160278036678
0.161109047889
0.16195114722
0.162799340303
0.163647589295
0.164489669223
0.165319732952
0.166132385859
0.166922346968
0.167683962287
0.168410788372
0.169095358212
0.169729282708
0.170303995096
0.170812373179
0.171250545393
0.171618350583
0.171918514177
0.172156671373
0.172341732082
0.172483218141
0.172588574027
0.172664071445
0.172717005961
0.172743356724
0.17271433542
0.172639070129
0.172529670732
0.172399539018
0.172259880596
0.172108734969
0.171948759679
0.171797812208
0.171671097017
0.171569942418
0.171494522789
0.171447393969
0.171427026957
0.17141897024
0.144648769876
0.144664798252
0.14468988038
0.144719997948
0.144757610957
0.144811819903
0.14486732045
0.144933567129
0.145016932271
0.145102555604
0.145208630427
0.14535610548
0.145519668089
0.145688843427
0.145862986258
0.146050515011
0.146262123034
0.146499398503
0.1467546985
0.147030651166
0.147332953554
0.14766569198
0.148030516006
0.14843239823
0.148876526137
0.14935136315
0.149861985368
0.150405920242
0.150982647014
0.151592026841
0.152224002505
0.152874522428
0.153532546383
0.154203033943
0.154888629663
0.155594446227
0.156323392047
0.157075683282
0.157849767446
0.15864352466
0.159455282351
0.160283649456
0.16112658612
0.161980677661
0.162841052361
0.163701876893
0.164557090344
0.165400943354
0.16622807419
0.1670331767
0.167810509045
0.168553440483
0.16925420022
0.169904168831
0.170495017852
0.171020413466
0.171477067574
0.171863913439
0.172180937133
0.172432327516
0.172628136162
0.172776750436
0.172885354531
0.172958723121
0.173000301637
0.173020950119
0.172990358991
0.172876987505
0.172725013328
0.172550156576
0.17236092092
0.172156859161
0.171940323333
0.171730107787
0.171555982998
0.171428916451
0.17135225409
0.171314278763
0.171302797902
0.171301660682
0.144527536794
0.144545741397
0.144574930595
0.144604221992
0.144644938208
0.144699855234
0.144758101367
0.144824972738
0.144909218618
0.145012336227
0.145124129999
0.145272306479
0.145437136612
0.145602948921
0.145771676926
0.145962198005
0.146177177347
0.146409580659
0.146659492749
0.146933094232
0.147235119369
0.147568423591
0.147933681881
0.148334520462
0.148785194755
0.149268800282
0.149776942666
0.150327919561
0.150910186842
0.151524194693
0.152159630946
0.152808566569
0.153465988573
0.154134478596
0.154824638306
0.155538225793
0.156275419834
0.157036220722
0.157819678971
0.158624149356
0.159447963028
0.160289360592
0.161145884479
0.162013904604
0.162888560772
0.163764153341
0.164634788837
0.16549485396
0.166339042512
0.167162036931
0.167958055575
0.168720399046
0.169441262683
0.170112278736
0.170725884397
0.17127661722
0.171760786395
0.172173938444
0.172511036163
0.172778125746
0.172991879039
0.17315399582
0.173266197295
0.173328420958
0.17334582664
0.173331001741
0.173287653618
0.173180759409
0.172975489361
0.172740984282
0.172492885276
0.172227681609
0.171928821926
0.171617018807
0.171371502901
0.171223054521
0.171161559632
0.171147895539
0.171152431843
0.171161431171
0.14438873047
0.144406079046
0.144437945836
0.144472615866
0.144522169917
0.144572166662
0.144631591267
0.144701427554
0.144778586535
0.144891494484
0.145018232624
0.145167630804
0.145333182466
0.145500061352
0.145668400144
0.145860008933
0.146076712567
0.146306236454
0.146552209421
0.146822622246
0.147123750418
0.147459152762
0.147829711695
0.148230768292
0.148677148346
0.149173684418
0.149690600075
0.150241735564
0.150826083423
0.151435835953
0.152078385308
0.152730706575
0.153386892752
0.154057966495
0.154754145606
0.15547583347
0.156222032041
0.156992380186
0.157786207854
0.158602316589
0.15943925729
0.160295077978
0.161166922411
0.162050878823
0.162942032275
0.163834796454
0.164723457062
0.165602538188
0.16646677614
0.167310855797
0.168129049785
0.168914835673
0.169660845505
0.170359602363
0.171004703744
0.171590898082
0.172111946434
0.172558096852
0.172918841616
0.173208832222
0.17346252688
0.173651667545
0.173767434791
0.173806024934
0.173777775008
0.173699945246
0.173596281192
0.173485774023
0.173283940735
0.172987331074
0.172674686884
0.172350342019
0.171927139709
0.171422710596
0.171066587532
0.170910761962
0.170900007594
0.170938760566
0.170972555847
0.171000104784
0.144228231103
0.144242096214
0.14426789685
0.144311859563
0.14437251195
0.14442358799
0.144484841817
0.144561717468
0.144637919644
0.144748017793
0.144886406754
0.145039992048
0.145205748123
0.145375437764
0.14555136521
0.145746152437
0.145961919043
0.146188774361
0.146432543632
0.146700033118
0.146997542461
0.147331139066
0.147711380075
0.148124467786
0.148566094852
0.149062969766
0.149588925067
0.1501387034
0.150732670493
0.151348234211
0.151983894593
0.152633205186
0.153292441803
0.153972149243
0.154676541755
0.155406912922
0.156162811212
0.156943721879
0.157749042494
0.15857783536
0.159428992832
0.160300653655
0.161189631913
0.162091631182
0.163001640518
0.163914228089
0.164823891342
0.165725261964
0.166613060234
0.167481974805
0.16832647769
0.16914061807
0.169918177005
0.170653308508
0.171340604652
0.171972608447
0.172538956937
0.173029915247
0.173421852629
0.17374273656
0.174090457101
0.174335688856
0.174458449444
0.174457339743
0.174357273535
0.174186241693
0.17397812591
0.173795007856
0.173591941419
0.173276826999
0.172936866335
0.172604664921
0.171997878027
0.171055275582
0.17051926858
0.170411189435
0.17054366416
0.170695436686
0.170774830255
0.170841650274
0.144045589408
0.144056514552
0.14407328206
0.144122382896
0.144184576171
0.144244228988
0.144310201391
0.144395023902
0.144479606529
0.144589343703
0.144733140291
0.144889899425
0.145055643265
0.145224413947
0.145410467014
0.145615904969
0.14583157598
0.146056435262
0.146299372226
0.146565639627
0.146859477374
0.147186759067
0.147568111426
0.148002479368
0.148451410156
0.148937728846
0.149475342732
0.150031962062
0.150618629977
0.151238584105
0.15187694311
0.152525459905
0.153188155026
0.15387628256
0.154590379598
0.155330681732
0.156097182696
0.156889602453
0.157707629349
0.158550445047
0.159417073037
0.160305954159
0.161213868526
0.162136126814
0.163067529833
0.16400286853
0.164936943676
0.165864446302
0.166779948173
0.167678098904
0.168553772911
0.169402181259
0.170219225998
0.171001328756
0.171742439371
0.172427664626
0.173049792105
0.17362918994
0.174067019523
0.174417310577
0.175085666994
0.175414388877
0.175503718684
0.175400575776
0.1751568447
0.174822442313
0.174438080091
0.174093757032
0.173818191744
0.173513274412
0.173231970882
0.173200279362
0.172260798984
0.170414843003
0.169588193032
0.169634338682
0.170109715208
0.170479871632
0.170574964397
0.170727842155
0.143841905391
0.143854492883
0.143876602107
0.143914788952
0.143971583801
0.144037068235
0.144109094201
0.144198547083
0.144296485677
0.144409794547
0.144558101182
0.144717903816
0.144885221405
0.145053994186
0.145243552611
0.145459100729
0.145679517519
0.145906535446
0.146150602728
0.146417379512
0.146709893685
0.147031785172
0.147408598592
0.147855456144
0.14832114308
0.148805760657
0.149347045328
0.149913011424
0.150496466048
0.151113879188
0.151748499678
0.152398455505
0.153071678807
0.153770247103
0.154494863145
0.155246155454
0.156024503423
0.15682957606
0.157661308715
0.15851947676
0.159403190733
0.160310906396
0.161239545498
0.162184269698
0.163139737582
0.164101048634
0.165063435376
0.1660215729
0.166969638799
0.167902134961
0.168814587272
0.16970420714
0.170570226939
0.171411634994
0.172217199062
0.172957639596
0.173679951
0.174486077703
0.174844784693
0.174740526048
0.174932695333
0.1751705041
0.175257901343
0.175170593427
0.174957880365
0.174666017739
0.174336015832
0.174016623624
0.173743300348
0.173556236548
0.173622984676
0.174304424889
0.174086615277
0.168286666459
0.167119993415
0.168078779022
0.169619408822
0.170422548192
0.170367794833
0.170744545139
0.143612309166
0.143626632314
0.14365933958
0.143687685219
0.143738028183
0.143805452123
0.143882504372
0.143978122673
0.144092009911
0.144208594253
0.144360393503
0.144523729188
0.144694353506
0.144866673094
0.145059180986
0.145279995458
0.145505671447
0.14573748944
0.145984739454
0.1462532488
0.146546521139
0.146867005061
0.147235415079
0.147680801567
0.148171965321
0.148665976491
0.149196442888
0.149777787547
0.150371415004
0.150974909417
0.151604194403
0.152259700004
0.152942543198
0.153652369262
0.154388862627
0.155152435258
0.155943656352
0.156762761217
0.157609659262
0.158484390244
0.159386715484
0.160315164361
0.161266558945
0.162235983519
0.163218190776
0.164208879183
0.165203955797
0.166198002267
0.167184323767
0.168156879386
0.169112313883
0.17005103034
0.170976627945
0.171889537403
0.172767948489
0.173553110623
0.17415381349
0.174367760125
0.174596662645
0.174767979482
0.174878011393
0.175035721666
0.175101234145
0.175015550862
0.17480482357
0.17450788931
0.174161020314
0.17380275837
0.173467429506
0.173159640285
0.172870113849
0.172443063295
0.170445702815
0.168295657877
0.168138896513
0.169231035978
0.170760496538
0.171692348874
0.169582581587
0.170999701233
0.143352188437
0.143366153146
0.143398303746
0.143429210418
0.143477565825
0.143547138073
0.143627320723
0.143724421419
0.143853691687
0.143982588899
0.14413782314
0.144305723428
0.144481613062
0.144660532759
0.144857933201
0.145081983305
0.145312006774
0.14554950469
0.145801230377
0.146072534203
0.146367336703
0.146688822161
0.147051813563
0.147490193574
0.147998340825
0.148512003322
0.149036218614
0.149611604973
0.150216128737
0.150825836271
0.151451843447
0.152109986104
0.152801199324
0.153522487366
0.154271685554
0.155048505773
0.155853817474
0.156688117242
0.157551687887
0.158444618472
0.159367093381
0.160318170171
0.161294615955
0.162291152513
0.163302634001
0.164326040977
0.165358750113
0.16639497205
0.167425792853
0.168444324558
0.169449563801
0.170446114274
0.171442434837
0.172448899232
0.173402918875
0.173684250133
0.173947390719
0.174215653352
0.174439046124
0.174598303763
0.174685730392
0.174756422242
0.17474961451
0.17461905659
0.174373135417
0.174040087031
0.173649069088
0.17322724121
0.1727943671
0.172334993959
0.171780256056
0.171014863732
0.169790575749
0.168692079016
0.168393466031
0.168961987295
0.169906448769
0.170282676688
0.171336455931
0.172899986765
0.143063365134
0.143076699769
0.143110592257
0.143142760508
0.143192395963
0.143263286663
0.143346260266
0.143441660368
0.143575120199
0.143721850918
0.143885805526
0.144060196026
0.144243473931
0.14443330293
0.14463681514
0.14486433901
0.145098776506
0.145342662858
0.14559974929
0.145874873831
0.146171955339
0.146494750703
0.146854795752
0.147284337366
0.147794723176
0.14833757947
0.148873276624
0.149436614065
0.150036862964
0.150649992248
0.151280532251
0.151946175746
0.152646766991
0.153379578569
0.154142181054
0.154933553227
0.155754064474
0.156604833563
0.157486441579
0.158399279059
0.15934367196
0.160319191921
0.161323067319
0.162349544563
0.163393027866
0.164452225126
0.165527286226
0.166612148183
0.167694301227
0.168765413852
0.169827557891
0.170889226635
0.171967888733
0.172990975694
0.173231627757
0.173479739613
0.173753617826
0.174000778605
0.174189048038
0.174309001725
0.174358070914
0.174348275199
0.174256674387
0.17405705706
0.173749666003
0.173351895717
0.172884467514
0.172365359013
0.171804073457
0.171195710791
0.170473205454
0.169590032117
0.168545198624
0.167555454006
0.16709745164
0.16737196586
0.168214067546
0.169447777859
0.171531569842
0.173814316219
0.142748592671
0.142760358397
0.142790065754
0.142826893524
0.142882752461
0.142955438423
0.143043047948
0.143138858643
0.143272972134
0.143431278698
0.14360355637
0.14378426125
0.143973762907
0.144178202756
0.144391904087
0.144623507716
0.144863327941
0.145115329046
0.145379199166
0.145659342381
0.145959690043
0.146284160156
0.146642805512
0.147065103409
0.14757107182
0.148133513169
0.148692606505
0.149253972356
0.149844375861
0.150455213169
0.151091983507
0.151765964443
0.152476711392
0.153221316036
0.153998186256
0.154805718955
0.155643209496
0.156511728226
0.157412967905
0.158347312554
0.15931542995
0.1603176524
0.161351641665
0.16241104139
0.163488483849
0.164585207596
0.165708754361
0.166852279866
0.167992198317
0.169121252404
0.170246084098
0.171386320013
0.172465976676
0.172753460293
0.173015746232
0.173259927436
0.173498334523
0.173696614369
0.173829551937
0.173885760191
0.173860718739
0.173754830596
0.173558420678
0.173258227933
0.172852737708
0.172351854058
0.171769077326
0.171115825918
0.170397213341
0.169611704535
0.168704984995
0.167638613423
0.166465190684
0.165360036972
0.164633815919
0.164476201433
0.164924808857
0.166041215374
0.168363784684
0.170386003313
0.142411604314
0.142422076664
0.142446053443
0.142488134995
0.142549467209
0.142623842977
0.142715468495
0.14281628652
0.14294870425
0.143113970971
0.143292492756
0.143478429501
0.143671467891
0.143885898007
0.144115916083
0.144354879195
0.144601345304
0.144862803927
0.145136460043
0.145423893865
0.14572935518
0.146056130211
0.146414802485
0.146831808357
0.14732823661
0.147891876413
0.148475759044
0.14905239404
0.149641710428
0.150251088212
0.150888883058
0.151569384745
0.152290241922
0.153045818001
0.153838147261
0.15466341667
0.155518770378
0.156406855626
0.157329618538
0.158287801909
0.15928180795
0.160312413114
0.161378383288
0.162474464423
0.163594077894
0.164738308649
0.165912780775
0.16710763077
0.168307439393
0.169509435166
0.170707945328
0.171872166828
0.172197044141
0.172482541859
0.17274409289
0.17296876694
0.173153139821
0.173280185622
0.173331666903
0.173296529902
0.173169580195
0.172948411478
0.172627789753
0.172201018439
0.171666588734
0.171029341288
0.170296471126
0.16947321768
0.168559494148
0.167547131979
0.166419652148
0.165112864018
0.163644103815
0.162156726339
0.160812390787
0.159699160364
0.158789246697
0.15788653695
0.156510951318
0.153616144599
0.142054008814
0.142064381572
0.142086974453
0.142133919743
0.142196062904
0.142269810577
0.142360737435
0.142468361085
0.142599050957
0.142768939915
0.142952963717
0.143144160375
0.14334185268
0.143560808179
0.143805253595
0.144055734062
0.144311298196
0.144582119055
0.144866837216
0.145164754602
0.145478699332
0.14580934766
0.146169311451
0.146583779554
0.14707156314
0.147629772257
0.148226316262
0.148821413598
0.149413451575
0.150023631875
0.150668834523
0.151354391413
0.152083229392
0.152851525998
0.153660136852
0.154503892708
0.155378883136
0.156288276853
0.157234318033
0.15821829463
0.159240804301
0.16030291169
0.16140575823
0.162547566623
0.16371880025
0.164909282657
0.166123750016
0.167366852605
0.168641946513
0.169949801172
0.171212815467
0.171571377726
0.17187224944
0.17215782641
0.172396056016
0.172573568173
0.172685121799
0.172720465127
0.172667331856
0.172516960348
0.172264500315
0.171907041161
0.171441099427
0.170862724225
0.17017002441
0.169363887202
0.168445878712
0.167415303093
0.166266751436
0.164988255164
0.163566394528
0.161916702801
0.159987158976
0.157842522517
0.155507116498
0.152889584751
0.149744111427
0.145709941597
0.14065467727
0.139443243209
0.141672446199
0.141683398491
0.141707257864
0.141759350913
0.14182172823
0.14189407706
0.1419817359
0.142094063329
0.142221350176
0.142394216688
0.142583934199
0.142780723688
0.142984389301
0.143209281796
0.143463476709
0.143725936269
0.14399273133
0.144273774477
0.14456880267
0.144878406804
0.145204334494
0.14554161769
0.145903927566
0.146318143057
0.146799629627
0.147350255738
0.147949973491
0.148558407552
0.149164678049
0.149779868783
0.150431389595
0.15112442244
0.151859110739
0.15263485995
0.153457130602
0.154322477005
0.155220844308
0.156154155848
0.157125168509
0.158136637843
0.159190612797
0.160289026282
0.161437448055
0.162633526936
0.163853314319
0.165082098251
0.166334121684
0.167637156352
0.169030549169
0.170507584565
0.17090347652
0.171204477657
0.171506743971
0.171763492842
0.171948858364
0.172053527126
0.172071303702
0.171994794782
0.171816237037
0.171529603946
0.171131018261
0.17061773802
0.169986836901
0.16923489224
0.168358696048
0.167355319828
0.166220696091
0.164947352434
0.163522008462
0.161923077459
0.160119046925
0.158048732976
0.155555542492
0.152546614817
0.14891408496
0.144287477205
0.137836686638
0.127736744117
0.108800693063
0.0628236340365
0.141258990739
0.141270479281
0.141297822487
0.141355771855
0.141419358263
0.141491075701
0.141577822769
0.141691983401
0.14181530578
0.141988639566
0.142183809586
0.142386296849
0.142596168673
0.142827320715
0.143089391831
0.143363356745
0.143643903628
0.143936552127
0.144241473099
0.144562429564
0.144902725532
0.145250432829
0.145615859472
0.146031200366
0.146509636623
0.147052348002
0.147648388922
0.148259765323
0.148883711362
0.149517820182
0.150175232845
0.150871072695
0.151614772144
0.152403640026
0.153234389657
0.154115830368
0.155039413127
0.155999741964
0.156999717687
0.158041438368
0.159129117
0.160271453645
0.161477944386
0.162731430096
0.163995084805
0.165263232341
0.166567475776
0.16795967716
0.169419548772
0.170298906882
0.17057835447
0.170832940588
0.171087846918
0.171281569588
0.171386133021
0.171392485074
0.17129446655
0.171086694695
0.170764457497
0.170323953357
0.169762281643
0.169076828091
0.168264418308
0.167320820802
0.166240626215
0.165016799822
0.163639375184
0.162093386369
0.160356281985
0.158394775072
0.15616028132
0.153588968853
0.150475139181
0.14653722559
0.141528028306
0.134877037433
0.125360616576
0.11055585963
0.0855631875554
0.0439291817771
0.140802481965
0.140814457859
0.140845268873
0.140909539293
0.140974346915
0.141049236342
0.14113726978
0.141251730696
0.141374803629
0.141549820835
0.141750647792
0.141958861739
0.142174883648
0.142411918024
0.14268023614
0.14296345746
0.143260143222
0.143566814458
0.14388246247
0.144214493745
0.144569571075
0.144932837848
0.14530347192
0.145719258815
0.146197651255
0.146734838462
0.1473256445
0.147935042231
0.148565552367
0.149222410168
0.149900535191
0.150603466675
0.151343898359
0.152140979234
0.152989633842
0.153887101161
0.154833070515
0.15582145164
0.156852447868
0.157928648054
0.159057087633
0.160255814317
0.161527460677
0.162836737381
0.164154873298
0.165496305752
0.166911767094
0.168330042705
0.169508191075
0.169930769377
0.170171354419
0.170393871135
0.17058326506
0.170688622478
0.170688413523
0.170574390944
0.170341389086
0.169985860848
0.169505214577
0.1688972458
0.168159738055
0.167289912863
0.166283745048
0.16513535623
0.163836477193
0.162375638143
0.160736737961
0.158896864231
0.156823272391
0.15446914535
0.151767187625
0.148618626718
0.144881448967
0.140171755425
0.133992438779
0.125786365915
0.114451715178
0.098098151949
0.0733996169041
0.0393074726434
0.140294008016
0.140308462999
0.140341091238
0.140405939928
0.140475848419
0.140560036133
0.140654166937
0.1407727375
0.140903334401
0.141076094062
0.141282097039
0.141496256689
0.141718648349
0.141961503314
0.142235074571
0.142523807201
0.142833152953
0.143157836834
0.143487570441
0.143832642466
0.144201387564
0.144584252286
0.144968766499
0.145382700137
0.145860911831
0.146395514604
0.146981929606
0.147589588412
0.148219978984
0.148890170032
0.149591582053
0.150314527712
0.151060827629
0.151856844266
0.152713275307
0.153629610469
0.154599940981
0.155617899261
0.156681164121
0.157795378555
0.158977426989
0.160244474575
0.161581446375
0.162953966973
0.164359607656
0.165841358054
0.167347951291
0.168460284426
0.169042775057
0.169384258813
0.169657567454
0.169852418888
0.169960103918
0.169960145894
0.169837853569
0.169586786061
0.169204083489
0.168688352661
0.168038729819
0.167254128847
0.166332646295
0.165270984043
0.164063809262
0.162703078591
0.161177277452
0.159470368636
0.157560195955
0.155416135209
0.152995752173
0.150240005997
0.147066121448
0.143356462954
0.138942986459
0.133551098058
0.12660561156
0.117381241538
0.105037811464
0.0882221289409
0.0644974371055
0.0344712654986
0.139739078174
0.139757608811
0.13979093067
0.13984987918
0.139928180413
0.1400224713
0.140126030332
0.140253512138
0.140398448581
0.140568667073
0.140776994689
0.140996555956
0.141225687731
0.141474904123
0.141754379883
0.142049364496
0.142365832966
0.142706803301
0.143054137363
0.1434160111
0.143798856711
0.144201037043
0.144610380864
0.145033972084
0.145505491972
0.146036362093
0.146618493524
0.147225180673
0.147853675781
0.148528019626
0.149243821493
0.149992684807
0.150757868328
0.151556578185
0.152414606193
0.153340744736
0.154332705797