/*--------------------------------*- C++ -*----------------------------------*\
| =========                 |                                                 |
| \\      /  F ield         | OpenFOAM: The Open Source CFD Toolbox           |
|  \\    /   O peration     | Version:  v1806                                 |
|   \\  /    A nd           | Web:      www.OpenFOAM.com                      |
|    \\/     M anipulation  |                                                 |
\*---------------------------------------------------------------------------*/
FoamFile
{
    version     2.0;
    format      ascii;
    class       surfaceScalarField;
    location    "747";
    object      phi;
}
// * * * * * * * * * * * * * * * * * * * * * * * * * * * * * * * * * * * * * //

dimensions      [0 3 -1 0 0 0 0];
oriented        oriented;


internalField   nonuniform List<scalar> 
12640
(
-2.54285390503e-07
2.5481956796e-07
-4.78309347047e-07
2.24480991137e-07
-6.67969483943e-07
1.90002767416e-07
-8.24310535682e-07
1.56621378078e-07
-9.39527251579e-07
1.15458637373e-07
-1.01332829729e-06
7.40384247195e-08
-1.0663379592e-06
5.32319261177e-08
-1.14204585326e-06
7.59086644029e-08
-1.24157356891e-06
9.97123887327e-08
-1.33432136764e-06
9.29098478182e-08
-1.41841041616e-06
8.42254951928e-08
-1.50275013971e-06
8.44625183299e-08
-1.57688244272e-06
7.42442516943e-08
-1.63712851875e-06
6.03504102747e-08
-1.69136312435e-06
5.43320633578e-08
-1.75187838095e-06
6.06089851724e-08
-1.81361610941e-06
6.18257214226e-08
-1.86523046958e-06
5.16975455904e-08
-1.90571326756e-06
4.05575998726e-08
-1.94344963605e-06
3.78064365543e-08
-1.99249459197e-06
4.9110914025e-08
-2.05277066325e-06
6.03394833892e-08
-2.11348324472e-06
6.07716094793e-08
-2.16951039629e-06
5.6082890546e-08
-2.2196429258e-06
5.0183811653e-08
-2.26429312419e-06
4.46991983163e-08
-2.30532082757e-06
4.10735634042e-08
-2.34190442808e-06
3.66280860683e-08
-2.37325272931e-06
3.1389884578e-08
-2.40048327434e-06
2.72709603919e-08
-2.42599728137e-06
2.55516161414e-08
-2.44895066387e-06
2.29904400869e-08
-2.46792180629e-06
1.90067882465e-08
-2.48630579763e-06
1.84189828037e-08
-2.50446524341e-06
1.81921421586e-08
-2.52126861524e-06
1.68359738423e-08
-2.53781242868e-06
1.65740749807e-08
-2.55253052858e-06
1.47471718078e-08
-2.56320933827e-06
1.0706069461e-08
-2.57010071028e-06
6.91898414125e-09
-2.57620134677e-06
6.12683711224e-09
-2.57890655991e-06
2.73111377884e-09
-2.57287450596e-06
-6.00793957684e-09
-2.56037472417e-06
-1.24758896256e-08
-2.54400913248e-06
-1.6343107432e-08
-2.52313712741e-06
-2.08491496258e-08
-2.49710668067e-06
-2.60086585962e-08
-2.46478959272e-06
-3.22947407853e-08
-2.42598145682e-06
-3.87866681568e-08
-2.38356289498e-06
-4.23963477138e-08
-2.34084816909e-06
-4.26936660244e-08
-2.29293030159e-06
-4.78957860582e-08
-2.22921332012e-06
-6.36948652751e-08
-2.15185523138e-06
-7.73343920692e-08
-2.06122547703e-06
-9.06062268754e-08
-1.95384336651e-06
-1.07357668364e-07
-1.84105294924e-06
-1.1276693533e-07
-1.7257417747e-06
-1.15286977818e-07
-1.5947962969e-06
-1.30921315972e-07
-1.44713305392e-06
-1.4763911483e-07
-1.28968904059e-06
-1.57418671726e-07
-1.10453039547e-06
-1.85126017913e-07
-8.50578348356e-07
-2.53904359597e-07
-5.711756206e-07
-2.7935008664e-07
-3.61184133063e-07
-2.09955533965e-07
-2.20219926183e-07
-1.40938387649e-07
-1.09018756005e-07
-1.11180132023e-07
-8.74666700865e-09
-1.00250234972e-07
8.36644751649e-08
-9.238709089e-08
1.65904836581e-07
-8.2211592229e-08
2.30292453437e-07
-6.43587405614e-08
2.70187980737e-07
-3.9867859415e-08
2.84136243952e-07
-1.39213502048e-08
2.71571692473e-07
1.25910424571e-08
2.44615386137e-07
2.6981806565e-08
2.08777475212e-07
3.58602893334e-08
1.7720582897e-07
3.1591323555e-08
1.30463078067e-07
4.67652412654e-08
8.11356880908e-08
4.93701534649e-08
8.11586105651e-08
-1.34753552438e-07
3.89898167935e-07
-3.11866143062e-07
4.01925596308e-07
-4.80096122953e-07
3.58510625955e-07
-6.49368198433e-07
3.26118187298e-07
-8.5181225379e-07
3.18136746663e-07
-1.00120065113e-06
2.23650615444e-07
-1.08661000824e-06
1.38863142595e-07
-1.1672290182e-06
1.56737765964e-07
-1.25552952907e-06
1.88202404171e-07
-1.34921565888e-06
1.86757616649e-07
-1.43714200127e-06
1.72296058196e-07
-1.51043645697e-06
1.5788053043e-07
-1.57529605931e-06
1.39220112647e-07
-1.63537215046e-06
1.20534576367e-07
-1.69227985535e-06
1.11347149117e-07
-1.75434821417e-06
1.22775879259e-07
-1.81209636853e-06
1.19666082829e-07
-1.84652666382e-06
8.62061573185e-08
-1.87653245643e-06
7.0637505986e-08
-1.92139758309e-06
8.27392293656e-08
-1.98107296451e-06
1.08855297051e-07
-2.05137778095e-06
1.30707626956e-07
-2.11739367375e-06
1.26850337846e-07
-2.17020834101e-06
1.0895297087e-07
-2.21778668631e-06
9.78169742945e-08
-2.26516547944e-06
9.21265711667e-08
-2.30680010852e-06
8.27575023792e-08
-2.34212140073e-06
7.19931181577e-08
-2.37333979447e-06
6.26531358063e-08
-2.40112363646e-06
5.50944228526e-08
-2.42522260547e-06
4.96917554022e-08
-2.44616561692e-06
4.39702544394e-08
-2.46327869026e-06
3.6158127197e-08
-2.48046566219e-06
3.56401244666e-08
-2.50110790972e-06
3.8870491383e-08
-2.51876380887e-06
3.45229413723e-08
-2.53421411276e-06
3.20569423513e-08
-2.55162325652e-06
3.21844250567e-08
-2.56855236372e-06
2.76654273013e-08
-2.57815774731e-06
1.65510666853e-08
-2.56899669923e-06
-3.00505281701e-09
-2.54855065131e-06
-1.76900022714e-08
-2.53439386619e-06
-2.01381251587e-08
-2.52492402091e-06
-2.19229338215e-08
-2.51374736869e-06
-2.74948087543e-08
-2.49934790546e-06
-3.52267882351e-08
-2.47985586841e-06
-4.54764012616e-08
-2.45509774708e-06
-5.70312690506e-08
-2.42404177414e-06
-6.98185984714e-08
-2.38155578409e-06
-8.48607213189e-08
-2.32372520391e-06
-1.00500315299e-07
-2.26043457865e-06
-1.11164648704e-07
-2.20784672289e-06
-1.16258508297e-07
-2.14641466473e-06
-1.38743399494e-07
-2.0626846555e-06
-1.74311449358e-07
-1.97224124091e-06
-1.97778017001e-07
-1.87167677144e-06
-2.13306543313e-07
-1.75332918143e-06
-2.33610863826e-07
-1.62238995476e-06
-2.61835778997e-07
-1.47312264039e-06
-2.96882230013e-07
-1.28691378613e-06
-3.43597396041e-07
-1.0752151469e-06
-3.96787696848e-07
-8.26451792686e-07
-5.02619142783e-07
-5.67390487289e-07
-5.38365699755e-07
-3.55521994243e-07
-4.2178779002e-07
-2.00700350397e-07
-2.95736228434e-07
-8.59826290576e-08
-2.2587662108e-07
1.26104491173e-08
-1.98822363366e-07
1.03372084994e-07
-1.83123771759e-07
1.83511904904e-07
-1.62326131041e-07
2.42893044182e-07
-1.23712114236e-07
2.75917370733e-07
-7.28669191954e-08
2.90935440226e-07
-2.89139952316e-08
2.95074374838e-07
8.47877410501e-09
2.81030917239e-07
4.10512347754e-08
2.54767849392e-07
6.21485971305e-08
2.13004513092e-07
7.33827201269e-08
1.64094685104e-07
9.57035018852e-08
8.90652825006e-08
1.24430282522e-07
1.70263346576e-07
-1.71651711377e-07
5.6178997559e-07
-2.63279181124e-07
4.93826874364e-07
-4.62187361573e-07
5.57683484013e-07
-6.85204466957e-07
5.49386181673e-07
-8.87551531987e-07
5.20706978595e-07
-9.94846307081e-07
3.31132539488e-07
-1.04957499028e-06
1.9378125052e-07
-1.13879562539e-06
2.46155957945e-07
-1.24166451647e-06
2.91251926659e-07
-1.34109234786e-06
2.86345520941e-07
-1.43237638303e-06
2.63717454129e-07
-1.50937503832e-06
2.35005863156e-07
-1.57485712698e-06
2.04822201016e-07
-1.63652334439e-06
1.82316646303e-07
-1.6851880897e-06
1.60120652791e-07
-1.68230392957e-06
1.19988922188e-07
-1.65000300538e-06
8.7444417991e-08
-1.66268271089e-06
9.8956862886e-08
-1.73736711352e-06
1.45389317836e-07
-1.86136321808e-06
2.06804217128e-07
-1.9821773244e-06
2.29738112108e-07
-2.05759533806e-06
2.06192372281e-07
-2.11253228185e-06
1.81848170706e-07
-2.16941889931e-06
1.65897483475e-07
-2.22217718767e-06
1.50628420622e-07
-2.26615141543e-06
1.36151835241e-07
-2.30506664246e-06
1.21719899646e-07
-2.34048374978e-06
1.07456289185e-07
-2.3717512282e-06
9.39635115119e-08
-2.39964993396e-06
8.30354651755e-08
-2.42242888985e-06
7.25102835259e-08
-2.44233763069e-06
6.39176083595e-08
-2.46199707014e-06
5.58545977157e-08
-2.4737284205e-06
4.74079253768e-08
-2.48879309391e-06
5.39683379984e-08
-2.51465465126e-06
6.04175020238e-08
-2.53282837853e-06
5.02613756923e-08
-2.54647364493e-06
4.58598224223e-08
-2.5648739301e-06
4.6094083885e-08
-2.57891518673e-06
3.0621481143e-08
-2.58524148168e-06
3.34870809386e-09
-2.58469590278e-06
-1.82082903758e-08
-2.57678671944e-06
-2.80221408699e-08
-2.56397993134e-06
-3.4704368946e-08
-2.54741509385e-06
-4.40357800126e-08
-2.52638069127e-06
-5.62367697796e-08
-2.50088515586e-06
-7.09486735424e-08
-2.4703977097e-06
-8.74947450467e-08
-2.43432762004e-06
-1.05865584133e-07
-2.3929826892e-06
-1.26181573295e-07
-2.34673409192e-06
-1.4672553531e-07
-2.29239089009e-06
-1.65483594167e-07
-2.22186623222e-06
-1.86759324046e-07
-2.14140996938e-06
-2.19175122851e-07
-2.06126860078e-06
-2.54429317165e-07
-1.97320825647e-06
-2.85814501746e-07
-1.86760634884e-06
-3.18885199936e-07
-1.74411922591e-06
-3.57074304661e-07
-1.60343261457e-06
-4.02498410132e-07
-1.44227168859e-06
-4.58016250168e-07
-1.25870785788e-06
-5.27130476633e-07
-1.02978938078e-06
-6.25667921142e-07
-7.71051055072e-07
-7.61313313208e-07
-5.19051899112e-07
-7.90324894456e-07
-3.11771177845e-07
-6.29040627186e-07
-1.6927595195e-07
-4.38208817278e-07
-5.11653352392e-08
-3.43967723453e-07
4.8073355363e-08
-2.98040662667e-07
1.32342704657e-07
-2.67373662417e-07
2.04214789747e-07
-2.34174313423e-07
2.63878494317e-07
-1.8335422149e-07
3.12641824342e-07
-1.21605823756e-07
3.42105571014e-07
-5.83523344683e-08
3.39919360611e-07
1.06912109928e-08
3.10423672952e-07
7.05738653101e-08
2.66978942121e-07
1.05620138627e-07
2.19753236694e-07
1.20629575509e-07
1.72439266412e-07
1.4304219088e-07
7.79519039354e-08
2.1897133444e-07
2.4822137406e-07
-1.24151219173e-07
6.86191252511e-07
-1.70862557237e-07
5.40720027778e-07
-3.94081102505e-07
7.81142953427e-07
-5.7780382066e-07
7.33346676353e-07
-5.99832913046e-07
5.429150251e-07
-5.4373239437e-07
2.75128306973e-07
-7.37546980095e-07
3.87721608058e-07
-1.02125110661e-06
5.30036782193e-07
-1.19959666925e-06
4.69770136726e-07
-1.32028558177e-06
4.07187435041e-07
-1.42324303606e-06
3.66814465873e-07
-1.50987716557e-06
3.21768866115e-07
-1.57125879409e-06
2.66324860481e-07
-1.57728865983e-06
1.88458112554e-07
-1.53935172068e-06
1.2228209121e-07
-1.52845677113e-06
1.09178020342e-07
-1.58571959303e-06
1.44782901807e-07
-1.70460305681e-06
2.17912803291e-07
-1.84283626535e-06
2.8369649074e-07
-1.93830408155e-06
3.02345298344e-07
-1.996930299e-06
2.88434725659e-07
-2.05765340986e-06
2.66981199726e-07
-2.11848946113e-06
2.42746254826e-07
-2.17184648758e-06
2.19311732747e-07
-2.21946100883e-06
1.98296978923e-07
-2.26233998227e-06
1.79080933652e-07
-2.30215635702e-06
1.6158440274e-07
-2.33796439931e-06
1.43309355618e-07
-2.36989190728e-06
1.25934845077e-07
-2.39619275243e-06
1.09377947228e-07
-2.42046913412e-06
9.68270903237e-08
-2.43802343689e-06
8.15104940853e-08
-2.45003502113e-06
6.79029477743e-08
-2.47437777202e-06
7.17855795446e-08
-2.49587088507e-06
7.54956275926e-08
-2.51448983549e-06
7.90683788719e-08
-2.54498767398e-06
8.07904675623e-08
-2.56967446825e-06
7.05765976224e-08
-2.57931004364e-06
5.57594853845e-08
-2.58304374859e-06
3.43835618727e-08
-2.58636170345e-06
6.6945542573e-09
-2.58673880385e-06
-1.78047637674e-08
-2.58062452002e-06
-3.41102061697e-08
-2.56848329928e-06
-4.68204296339e-08
-2.55162814101e-06
-6.08656990751e-08
-2.53026406394e-06
-7.7576404479e-08
-2.50434163885e-06
-9.68464337052e-08
-2.47350213692e-06
-1.18310193331e-07
-2.43740438194e-06
-1.41938827779e-07
-2.39592090881e-06
-1.67640867764e-07
-2.34804332515e-06
-1.94578161537e-07
-2.2908188141e-06
-2.22683273686e-07
-2.22237589091e-06
-2.55176971242e-07
-2.14674203599e-06
-2.94784668036e-07
-2.06382080973e-06
-3.37326533818e-07
-1.96830517332e-06
-3.81307128828e-07
-1.85641766167e-06
-4.30749565344e-07
-1.72520522151e-06
-4.88263400363e-07
-1.57132038264e-06
-5.56358179584e-07
-1.39015931176e-06
-6.39149408577e-07
-1.17540851874e-06
-7.41848027524e-07
-9.34068456957e-07
-8.66971461964e-07
-7.21151461078e-07
-9.74196295597e-07
-5.15287588596e-07
-9.96159141916e-07
-2.92080679289e-07
-8.52220023836e-07
-1.25539717743e-07
-6.04728314093e-07
-3.15410136872e-09
-4.66334031438e-07
9.78240647081e-08
-3.99002709422e-07
1.84120272685e-07
-3.53650355434e-07
2.6366902521e-07
-3.13707191299e-07
3.36734566157e-07
-2.56396115941e-07
3.81791547966e-07
-1.6663998104e-07
3.77940782321e-07
-5.44781418884e-08
3.44911154175e-07
4.37432422789e-08
3.03372674239e-07
1.12134028459e-07
2.46172665539e-07
1.62841604075e-07
1.77463034798e-07
1.89362527357e-07
1.21889806431e-07
1.98636572102e-07
6.34634535492e-08
2.77404118862e-07
3.11707804336e-07
-2.94586386722e-08
7.1575776449e-07
-1.51595529508e-07
6.62998253652e-07
-3.33076398636e-07
9.62819318892e-07
-4.72677422111e-07
8.73126209232e-07
-4.60338149998e-07
5.3070282342e-07
-5.70062363768e-07
3.84950488792e-07
-8.07402330224e-07
6.25201464146e-07
-9.8848631468e-07
7.11282788768e-07
-1.14119766785e-06
6.22639852691e-07
-1.27670991571e-06
5.42846227027e-07
-1.39775245112e-06
4.87995134612e-07
-1.46705270647e-06
3.91191823562e-07
-1.45543382356e-06
2.54814020085e-07
-1.43592913556e-06
1.69048138017e-07
-1.47973605264e-06
1.66175711433e-07
-1.5798762789e-06
2.09401767859e-07
-1.71018234365e-06
2.75171075025e-07
-1.8218181607e-06
3.29629557292e-07
-1.88690482336e-06
3.48861084755e-07
-1.93530425817e-06
3.50819100379e-07
-1.9953080476e-06
3.48509068305e-07
-2.05852489213e-06
3.30264608247e-07
-2.1169859456e-06
3.01268989374e-07
-2.16906814072e-06
2.71451605318e-07
-2.21570274167e-06
2.44985237614e-07
-2.25932439398e-06
2.22753391854e-07
-2.29790362187e-06
2.00210820632e-07
-2.33435367074e-06
1.79804925964e-07
-2.36462768845e-06
1.56252655976e-07
-2.39071255128e-06
1.35505184417e-07
-2.40791074607e-06
1.14065276722e-07
-2.42944104074e-06
1.03078489688e-07
-2.46138557846e-06
9.98835249597e-08
-2.48138342307e-06
9.18182226036e-08
-2.50639659214e-06
1.00541964743e-07
-2.53764641966e-06
1.10350735898e-07
-2.55995175377e-06
1.03127257593e-07
-2.57505136077e-06
8.57069879843e-08
-2.58349299056e-06
6.42306289681e-08
-2.58782213815e-06
3.87414762536e-08
-2.5908418021e-06
9.74183222093e-09
-2.59108249253e-06
-1.75370197817e-08
-2.58565940925e-06
-3.95070777453e-08
-2.57411230688e-06
-5.83414899135e-08
-2.557310454e-06
-7.76419998247e-08
-2.53574351346e-06
-9.91177919257e-08
-2.50946564728e-06
-1.23099127202e-07
-2.4782321197e-06
-1.49518386762e-07
-2.44170590827e-06
-1.78439857261e-07
-2.39939524856e-06
-2.09925711475e-07
-2.35003613371e-06
-2.43911426028e-07
-2.29163193103e-06
-2.81061071149e-07
-2.2235089511e-06
-3.23274231589e-07
-2.14691043341e-06
-3.71357893814e-07
-2.06020349159e-06
-4.24009566029e-07
-1.95884067447e-06
-4.82646373837e-07
-1.83823341148e-06
-5.5133346674e-07
-1.69332223606e-06
-6.33150140749e-07
-1.51884066309e-06
-7.30813808174e-07
-1.31162439736e-06
-8.46336541846e-07
-1.07774334096e-06
-9.75698385191e-07
-8.48941688047e-07
-1.09574358953e-06
-6.63737821423e-07
-1.15937239468e-06
-4.61913382386e-07
-1.19795494145e-06
-2.63986350936e-07
-1.05012223548e-06
-9.23252670028e-08
-7.76368380835e-07
4.8166033056e-08
-6.06809367328e-07
1.60149717559e-07
-5.10969297962e-07
2.52908783192e-07
-4.46398429121e-07
3.41489240914e-07
-4.02266450656e-07
4.1366482501e-07
-3.28554592936e-07
4.27986412741e-07
-1.80940728324e-07
4.02463761945e-07
-2.89380516029e-08
3.65284381342e-07
8.0939459249e-08
3.10192994292e-07
1.67244054596e-07
2.36918129948e-07
2.36135637132e-07
1.74976776335e-07
2.51313716051e-07
1.15473032621e-07
2.58148791447e-07
5.10594438017e-08
3.41853250155e-07
3.62765573898e-07
-1.62635495187e-08
7.32141311587e-07
-1.81323363149e-07
8.28182662224e-07
-2.86710820806e-07
1.06836496092e-06
-3.57415125038e-07
9.43972113826e-07
-3.59530966271e-07
5.32905984204e-07
-6.13194526492e-07
6.3872866693e-07
-8.46193264079e-07
8.58349064804e-07
-9.63183284334e-07
8.2842165565e-07
-1.09379144096e-06
7.53389079629e-07
-1.21612853262e-06
6.65328591861e-07
-1.28407262966e-06
5.56067689286e-07
-1.25180475832e-06
3.59025853553e-07
-1.25147616062e-06
2.54571276345e-07
-1.33190359905e-06
2.49557498889e-07
-1.4601791395e-06
2.94535448801e-07
-1.61889436333e-06
3.68204446083e-07
-1.75097542964e-06
4.07339308037e-07
-1.82107243647e-06
3.9981008541e-07
-1.86863421569e-06
3.96502007872e-07
-1.932967945e-06
4.15228567024e-07
-1.99833561655e-06
4.13948340664e-07
-2.0567956968e-06
3.88791262545e-07
-2.11235668279e-06
3.56891990106e-07
-2.16584533543e-06
3.24997660778e-07
-2.21370815714e-06
2.92901849994e-07
-2.25046670113e-06
2.59562059126e-07
-2.28989327379e-06
2.39685209436e-07
-2.32478086157e-06
2.14738085919e-07
-2.355767787e-06
1.87283140691e-07
-2.37281538803e-06
1.52594215671e-07
-2.39158024286e-06
1.32869517561e-07
-2.41653369765e-06
1.28069114079e-07
-2.44117397225e-06
1.2455887987e-07
-2.48674500183e-06
1.37423393864e-07
-2.52707049737e-06
1.4090109918e-07
-2.55211248958e-06
1.35425586249e-07
-2.56872101448e-06
1.19767763239e-07
-2.58077393612e-06
9.77907891473e-08
-2.58887324269e-06
7.23598418678e-08
-2.59392220603e-06
4.38191948793e-08
-2.59696289683e-06
1.28104009586e-08
-2.59695659662e-06
-1.75161990344e-08
-2.59180833863e-06
-4.46285256844e-08
-2.58073705272e-06
-6.93862481604e-08
-2.56414697972e-06
-9.42056142307e-08
-2.54249090064e-06
-1.20747591732e-07
-2.5158855891e-06
-1.49678075966e-07
-2.4841283047e-06
-1.81249287946e-07
-2.44682244616e-06
-2.15718831033e-07
-2.40331933559e-06
-2.53401807816e-07
-2.35247941118e-06
-2.94723537766e-07
-2.2929557162e-06
-3.40557489894e-07
-2.22406839257e-06
-3.92134493874e-07
-2.14518470861e-06
-4.5021625743e-07
-2.05334944966e-06
-5.15820300529e-07
-1.94352733455e-06
-5.92444544088e-07
-1.81002759286e-06
-6.84808590041e-07
-1.64702523432e-06
-7.96127143731e-07
-1.45091140705e-06
-9.26900308373e-07
-1.22582440143e-06
-1.07139549515e-06
-9.90072569091e-07
-1.2114224058e-06
-7.72898643051e-07
-1.31289163657e-06
-5.82279899567e-07
-1.34996791259e-06
-3.89602721986e-07
-1.39061154068e-06
-1.98310733578e-07
-1.24139315444e-06
-4.19035678702e-08
-9.32757977381e-07
1.0571926197e-07
-7.54414666186e-07
2.35347711068e-07
-6.40587011161e-07
3.47130090182e-07
-5.58162196798e-07
4.42338403306e-07
-4.97465282933e-07
4.84753833164e-07
-3.70951658995e-07
4.74190889948e-07
-1.70364548295e-07
4.50349004012e-07
-5.08284613792e-09
4.04473062428e-07
1.26828783304e-07
3.31140900155e-07
2.40589216084e-07
2.50762313173e-07
3.16524091416e-07
1.76687600056e-07
3.25401729831e-07
1.11264429549e-07
3.23588806602e-07
5.29012336283e-08
4.00211303603e-07
4.15683884521e-07
-7.1585753435e-08
8.03800616357e-07
-2.58325007497e-07
1.01503909469e-06
-3.5159714614e-07
1.16176729059e-06
-3.22210867803e-07
9.14702316454e-07
-4.29292839363e-07
6.40083932395e-07
-6.97670718254e-07
9.07239501498e-07
-8.30404363537e-07
9.91225969242e-07
-9.3381822281e-07
9.31968369683e-07
-1.0313692574e-06
8.5108072291e-07
-1.15667820293e-06
7.90760653745e-07
-1.16098202096e-06
5.60481687645e-07
-1.14786235713e-06
3.45988771123e-07
-1.22949877823e-06
3.36288410271e-07
-1.34254841846e-06
3.6268870005e-07
-1.50158060137e-06
4.53655777599e-07
-1.64947923098e-06
5.16195219077e-07
-1.72882600446e-06
4.86774306796e-07
-1.78149579722e-06
4.52562470842e-07
-1.85811433912e-06
4.73200631486e-07
-1.93255839059e-06
4.89749589755e-07
-1.99477117452e-06
4.76232976223e-07
-2.05353604531e-06
4.47623294672e-07
-2.11030164036e-06
4.13719261089e-07
-2.15938615083e-06
3.74139508549e-07
-2.20039399716e-06
3.33963628557e-07
-2.23996898845e-06
2.99186999713e-07
-2.27144832507e-06
2.71212209347e-07
-2.3069363855e-06
2.50270980466e-07
-2.33270505651e-06
2.13094695808e-07
-2.3516936617e-06
1.71623319829e-07
-2.38067577073e-06
1.61890300178e-07
-2.41429156076e-06
1.61721429007e-07
-2.45840537258e-06
1.68707724207e-07
-2.50002691008e-06
1.7907942433e-07
-2.53829901885e-06
1.79207354191e-07
-2.56155162105e-06
1.58711477982e-07
-2.57625604412e-06
1.34504301413e-07
-2.58741767661e-06
1.08983453909e-07
-2.59582158465e-06
8.07936555129e-08
-2.60149243211e-06
4.95190085877e-08
-2.60463144765e-06
1.59775630821e-08
-2.60443650513e-06
-1.76834688158e-08
-2.59938172527e-06
-4.96559510111e-08
-2.58863251656e-06
-8.01081722829e-08
-2.57225425232e-06
-1.10556665327e-07
-2.55053165138e-06
-1.42442816432e-07
-2.52353355704e-06
-1.7664860278e-07
-2.49104530402e-06
-2.13709381342e-07
-2.45264761586e-06
-2.5408808716e-07
-2.40769932686e-06
-2.98320631096e-07
-2.355256745e-06
-3.47137207342e-07
-2.29420660483e-06
-4.01578468417e-07
-2.22336838916e-06
-4.62945588505e-07
-2.14065813059e-06
-5.32900249576e-07
-2.04194038349e-06
-6.14512951597e-07
-1.92145834408e-06
-7.12900762335e-07
-1.77319499728e-06
-8.33045286605e-07
-1.5930486923e-06
-9.76245803835e-07
-1.38311655907e-06
-1.13680559928e-06
-1.15480361553e-06
-1.29968253044e-06
-9.29178034096e-07
-1.43702384687e-06
-7.24340856385e-07
-1.51770841122e-06
-5.20953162581e-07
-1.55333817471e-06
-3.56871396299e-07
-1.55467457143e-06
-1.43896315491e-07
-1.45434975885e-06
3.58647542641e-08
-1.11250245884e-06
1.9381198396e-07
-9.12349570718e-07
3.42508441934e-07
-7.89265535662e-07
4.64857472783e-07
-6.8050519785e-07
5.37160376525e-07
-5.6975214851e-07
5.51166377044e-07
-3.84949392208e-07
5.49971195841e-07
-1.69159335112e-07
5.30408128582e-07
1.44890213057e-08
4.65750040533e-07
1.91495440338e-07
3.66568922517e-07
3.39778566256e-07
2.74627559126e-07
4.08475303555e-07
1.81081850493e-07
4.1895201095e-07
1.02827515475e-07
4.01844144174e-07
5.24422493933e-08
4.50626885108e-07
4.68120610243e-07
-1.24344695331e-07
9.28268965636e-07
-2.82904785559e-07
1.17371939921e-06
-3.33553071853e-07
1.2125328452e-06
-2.58852316805e-07
8.40082554642e-07
-4.73013099275e-07
8.54346876152e-07
-6.89432663386e-07
1.12379611512e-06
-7.97092934157e-07
1.09901537477e-06
-9.0791471742e-07
1.04292266762e-06
-9.54060002039e-07
8.97340289472e-07
-1.00628544344e-06
8.4310250125e-07
-9.99542388008e-07
5.53817363822e-07
-1.11239154091e-06
4.58915959152e-07
-1.21938256441e-06
4.43356680239e-07
-1.37009483109e-06
5.1348589556e-07
-1.53079512364e-06
6.14450882628e-07
-1.62134730662e-06
6.06839739307e-07
-1.67736165082e-06
5.42873955412e-07
-1.76460549064e-06
5.39889296287e-07
-1.85496845137e-06
5.63645322586e-07
-1.92499842302e-06
5.59857295675e-07
-1.9849198968e-06
5.36227062053e-07
-2.04240175367e-06
5.05171492412e-07
-2.1018985459e-06
4.73277718743e-07
-2.15832833565e-06
4.3062742897e-07
-2.19578922592e-06
3.71476945735e-07
-2.2377010582e-06
3.41149097143e-07
-2.27157993108e-06
3.05138305364e-07
-2.28699573263e-06
2.65731535967e-07
-2.31192377759e-06
2.38064291895e-07
-2.36565057419e-06
2.25389924457e-07
-2.40455808075e-06
2.00836096745e-07
-2.42633011991e-06
1.83529686363e-07
-2.47035599396e-06
2.12769139861e-07
-2.51874650703e-06
2.27505147753e-07
-2.54769414241e-06
2.08189408798e-07
-2.56815323645e-06
1.79203937342e-07
-2.58352209639e-06
1.49905397458e-07
-2.59529234585e-06
1.20784816977e-07
-2.60424470525e-06
8.97761117172e-08
-2.61046609169e-06
5.57695846648e-08
-2.61378339421e-06
1.93233778322e-08
-2.61350392995e-06
-1.79348360794e-08
-2.60850984001e-06
-5.46220726551e-08
-2.59799927105e-06
-9.05907572066e-08
-2.5817853532e-06
-1.26742351232e-07
-2.55994010802e-06
-1.64259449558e-07
-2.53241711573e-06
-2.04142264577e-07
-2.49895974726e-06
-2.47136803102e-07
-2.45916285185e-06
-2.93853795992e-07
-2.41246828702e-06
-3.44984307816e-07
-2.3580676074e-06
-4.01506392282e-07
-2.29479960369e-06
-4.64817170457e-07
-2.22082960249e-06
-5.36887120589e-07
-2.13294396613e-06
-6.20760283433e-07
-2.0261909485e-06
-7.21238709699e-07
-1.89483128102e-06
-8.44232287822e-07
-1.73424037926e-06
-9.93607764105e-07
-1.54348948218e-06
-1.16696779467e-06
-1.32853895473e-06
-1.3517290147e-06
-1.10154878632e-06
-1.52664730124e-06
-8.75374047875e-07
-1.66317708726e-06
-6.62234514311e-07
-1.73083030956e-06
-4.73176777535e-07
-1.74238179222e-06
-3.23589902958e-07
-1.70424879459e-06
-1.36401789328e-07
-1.64152543635e-06
1.18590351813e-07
-1.36748359899e-06
3.0104244575e-07
-1.09478569781e-06
4.51026826642e-07
-9.39241703552e-07
5.61721085421e-07
-7.91182621252e-07
6.14540169891e-07
-6.22567478331e-07
6.38694102818e-07
-4.09096489117e-07
6.65168374111e-07
-1.95629575059e-07
6.48182849835e-07
3.14788721829e-08
5.53778936559e-07
2.85904096823e-07
4.19810291709e-07
4.73751844907e-07
2.91927795735e-07
5.3636224004e-07
1.78615923403e-07
5.32273080659e-07
8.44175123714e-08
4.96058473743e-07
3.64425905988e-08
4.98589683353e-07
5.04575818609e-07
-1.56174397782e-07
1.08452596657e-06
-2.75954078815e-07
1.29361364363e-06
-2.81800869452e-07
1.21847570219e-06
-3.15176403049e-07
8.73542171923e-07
-5.44894618705e-07
1.08417499735e-06
-6.51791749567e-07
1.23081785352e-06
-7.53370850504e-07
1.20071748276e-06
-8.61678032631e-07
1.15134150865e-06
-9.15557294691e-07
9.51325445636e-07
-9.70327400655e-07
8.97971491315e-07
-1.00750681186e-06
5.91071333623e-07
-1.11015463431e-06
5.61635642065e-07
-1.23533549334e-06
5.68618442357e-07
-1.39943497314e-06
6.77675927559e-07
-1.53539703519e-06
7.50506477709e-07
-1.60423419676e-06
6.75767776585e-07
-1.66812514576e-06
6.06850005781e-07
-1.7571128413e-06
6.28961182652e-07
-1.84211464109e-06
6.48729489298e-07
-1.9147759606e-06
6.32596468003e-07
-1.97775055322e-06
5.99273220298e-07
-2.03074280224e-06
5.58229950978e-07
-2.07790434967e-06
5.20502126318e-07
-2.1275460466e-06
4.80324792016e-07
-2.17228007016e-06
4.16263571766e-07
-2.20444653053e-06
3.73365626386e-07
-2.24761177518e-06
3.48349244943e-07
-2.29318745173e-06
3.11351852501e-07
-2.33175842852e-06
2.76676768681e-07
-2.36462388602e-06
2.58294501448e-07
-2.40370467548e-06
2.39953847963e-07
-2.46415738657e-06
2.44019050313e-07
-2.50272307414e-06
2.51370929853e-07
-2.53021585849e-06
2.55033385539e-07
-2.55474065142e-06
2.3274881933e-07
-2.57532735134e-06
1.99824123798e-07
-2.59175264106e-06
1.6636294581e-07
-2.60440671669e-06
1.33470040992e-07
-2.61396315488e-06
9.93627321875e-08
-2.62070285191e-06
6.25387125934e-08
-2.62434568969e-06
2.29951325999e-08
-2.62417367911e-06
-1.80781700637e-08
-2.61929208852e-06
-5.94750128355e-08
-2.60899158447e-06
-1.00862329614e-07
-2.59290347851e-06
-1.42800999918e-07
-2.57085182553e-06
-1.86280770838e-07
-2.54263932817e-06
-2.32323380071e-07
-2.50796059558e-06
-2.81782745175e-07
-2.46643639118e-06
-3.35344928699e-07
-2.41759722871e-06
-3.93789688851e-07
-2.36071327224e-06
-4.58358646762e-07
-2.29446016456e-06
-5.31039641908e-07
-2.21643011762e-06
-6.14890787218e-07
-2.12271814168e-06
-7.14444381666e-07
-2.00833328544e-06
-8.35594994378e-07
-1.86876660555e-06
-9.83768770269e-07
-1.70140947892e-06
-1.16093175671e-06
-1.50572492843e-06
-1.36262229462e-06
-1.28848127032e-06
-1.56894351196e-06
-1.06110577136e-06
-1.75399875799e-06
-8.24400885212e-07
-1.89986292749e-06
-6.00049459759e-07
-1.95516915798e-06
-4.01383217792e-07
-1.94104126273e-06
-2.31196941318e-07
-1.87443148984e-06
-9.86686619338e-08
-1.77405063998e-06
1.43169614151e-07
-1.6093123797e-06
4.21666001284e-07
-1.37327364405e-06
5.69605486221e-07
-1.08716433425e-06
6.600335647e-07
-8.81605814835e-07
7.04581444919e-07
-6.67107375939e-07
7.58144413482e-07
-4.62658837131e-07
8.28067114222e-07
-2.6555191635e-07
8.23002354311e-07
3.654501331e-08
6.76307548558e-07
4.32600275232e-07
4.73468267395e-07
6.76596362026e-07
2.82346920263e-07
7.27491774249e-07
1.43137623468e-07
6.71487754575e-07
4.82517235615e-08
5.90941665244e-07
7.44496423161e-09
5.39420138154e-07
5.12013411221e-07
-1.74451460559e-07
1.25911379932e-06
-2.88566704154e-07
1.40784755638e-06
-2.61621643621e-07
1.19162741056e-06
-3.69723150324e-07
9.81730937109e-07
-5.63641474882e-07
1.2782064974e-06
-6.17156309034e-07
1.28444378258e-06
-7.03787215805e-07
1.28746407933e-06
-7.63448172757e-07
1.21110129834e-06
-8.51633045786e-07
1.03960071578e-06
-8.75627112195e-07
9.22045922626e-07
-9.771960205e-07
6.92708708143e-07
-1.10144893876e-06
6.85963799837e-07
-1.23831970816e-06
7.05567844863e-07
-1.38939160827e-06
8.28840003854e-07
-1.48376821686e-06
8.44976444952e-07
-1.54129299425e-06
7.33375884205e-07
-1.63864977283e-06
7.04290657176e-07
-1.73764284973e-06
7.2803927533e-07
-1.8204113093e-06
7.31580165626e-07
-1.89714642855e-06
7.09408410437e-07
-1.96968441975e-06
6.71882907115e-07
-2.03261346708e-06
6.21227022609e-07
-2.07335935713e-06
5.61308413076e-07
-2.1065579644e-06
5.13579525156e-07
-2.16458865375e-06
4.74346205973e-07
-2.20478852537e-06
4.13613588652e-07
-2.2214647686e-06
3.65072668011e-07
-2.25002640647e-06
3.3995683407e-07
-2.29808922502e-06
3.24780535357e-07
-2.35949306105e-06
3.19736882897e-07
-2.41712084691e-06
2.97618427781e-07
-2.46428691691e-06
2.91221306745e-07
-2.5122528427e-06
2.99373217784e-07
-2.54155298617e-06
2.84369376033e-07
-2.56383651762e-06
2.55067035562e-07
-2.58403418269e-06
2.20055185321e-07
-2.60129509208e-06
1.83656089415e-07
-2.61488605038e-06
1.4709221578e-07
-2.625065598e-06
1.09572659366e-07
-2.6322573837e-06
6.97602404851e-08
-2.63628882113e-06
2.70559066913e-08
-2.63641721204e-06
-1.79205921137e-08
-2.6317862022e-06
-6.40765887195e-08
-2.62172584984e-06
-1.10892620343e-07
-2.60576010783e-06
-1.58735661617e-07
-2.58347561661e-06
-2.0853277123e-07
-2.55445225489e-06
-2.61312676938e-07
-2.51830070973e-06
-3.1789916187e-07
-2.47468809319e-06
-3.78921551264e-07
-2.42324915644e-06
-4.45194138941e-07
-2.36332172648e-06
-5.18252995867e-07
-2.29347967465e-06
-6.00853046151e-07
-2.21100575354e-06
-6.97338028282e-07
-2.11190044111e-06
-8.13521225656e-07
-1.99209297818e-06
-9.5536877626e-07
-1.84930117338e-06
-1.12652662583e-06
-1.68121595184e-06
-1.32898717522e-06
-1.48089977915e-06
-1.56290150893e-06
-1.26122172545e-06
-1.78859486907e-06
-1.04220968417e-06
-1.97298778306e-06
-7.87933696524e-07
-2.15413034614e-06
-5.3388557287e-07
-2.20921905269e-06
-2.95216752475e-07
-2.17971723489e-06
-8.79876876971e-08
-2.08167125123e-06
7.2168688585e-08
-1.93421502926e-06
2.39179966029e-07
-1.77632745261e-06
4.68142718732e-07
-1.60222903945e-06
6.6972148359e-07
-1.28873708641e-06
7.45164359884e-07
-9.57036536148e-07
7.95914508877e-07
-7.17855988818e-07
8.91460177296e-07