/*--------------------------------*- C++ -*----------------------------------*\
| =========                 |                                                 |
| \\      /  F ield         | OpenFOAM: The Open Source CFD Toolbox           |
|  \\    /   O peration     | Version:  v1806                                 |
|   \\  /    A nd           | Web:      www.OpenFOAM.com                      |
|    \\/     M anipulation  |                                                 |
\*---------------------------------------------------------------------------*/
FoamFile
{
    version     2.0;
    format      ascii;
    class       volVectorField;
    location    "747";
    object      U;
}
// * * * * * * * * * * * * * * * * * * * * * * * * * * * * * * * * * * * * * //

dimensions      [0 1 -1 0 0 0 0];


internalField   nonuniform List<vector> 
6400
(
(-0.000118371423364 -0.000154302154519 0)
(-0.000312483190049 -0.000111816111955 0)
(-0.000452294158799 -8.66247592149e-05 0)
(-0.000599264689405 -7.41455760274e-05 0)
(-0.000707359589944 -4.73508512504e-05 0)
(-0.000786276724328 -2.73833096449e-05 0)
(-0.000832178928528 -1.96568727482e-05 0)
(-0.00087080384487 -2.90674642627e-05 0)
(-0.000959061850851 -3.96387750062e-05 0)
(-0.00104486889145 -3.70828284845e-05 0)
(-0.00108803914091 -3.30896000351e-05 0)
(-0.00116444687492 -3.3932147196e-05 0)
(-0.00123320964472 -3.0044400811e-05 0)
(-0.00128844610143 -2.42056446626e-05 0)
(-0.00133022159224 -2.15803040268e-05 0)
(-0.00137300692354 -2.39135832748e-05 0)
(-0.00142406250728 -2.43934410122e-05 0)
(-0.00146830675434 -2.10603619679e-05 0)
(-0.00150201474009 -1.67415576115e-05 0)
(-0.00153443832631 -1.50554733965e-05 0)
(-0.00157491314334 -1.94359029914e-05 0)
(-0.00162211134298 -2.38018182585e-05 0)
(-0.00167006548271 -2.40420703638e-05 0)
(-0.00171275313586 -2.25200122305e-05 0)
(-0.00175198774461 -2.02144312077e-05 0)
(-0.0017891301394 -1.77700666961e-05 0)
(-0.00182525025016 -1.63812315249e-05 0)
(-0.00185775236657 -1.46926650971e-05 0)
(-0.00188498351431 -1.25616005123e-05 0)
(-0.00190757057128 -1.08860956035e-05 0)
(-0.00192602380238 -1.02625975448e-05 0)
(-0.0019445732774 -9.27059785324e-06 0)
(-0.0019630418444 -7.67802742287e-06 0)
(-0.00197833983571 -7.39246107396e-06 0)
(-0.00199263305246 -7.1664547884e-06 0)
(-0.00201030140596 -6.71928252749e-06 0)
(-0.00202435956309 -6.68039556599e-06 0)
(-0.00202950721732 -5.79063897164e-06 0)
(-0.00204094207618 -4.0533957838e-06 0)
(-0.00205555570454 -2.6859660602e-06 0)
(-0.00206209125076 -3.07308610007e-06 0)
(-0.0020591816323 -2.0216550049e-06 0)
(-0.00205380877893 2.11162373633e-06 0)
(-0.00204725590621 5.1610971683e-06 0)
(-0.00203681464898 6.80304977245e-06 0)
(-0.00202265943491 8.66124625731e-06 0)
(-0.00200438070887 1.07251746173e-05 0)
(-0.00198113776025 1.32767920989e-05 0)
(-0.00195287491723 1.58458268784e-05 0)
(-0.00191930303539 1.69325122144e-05 0)
(-0.0018825085879 1.64927533376e-05 0)
(-0.00184661478416 1.87623447282e-05 0)
(-0.00180236345391 2.62987602975e-05 0)
(-0.00175139540965 3.16123676135e-05 0)
(-0.00168506767842 3.65962675521e-05 0)
(-0.00159675629287 4.35695853329e-05 0)
(-0.00150348593144 4.5051505332e-05 0)
(-0.00141902191255 4.54914562431e-05 0)
(-0.00132947697718 5.19986696357e-05 0)
(-0.00120979074148 5.80427778558e-05 0)
(-0.00108514327118 6.06715050819e-05 0)
(-0.000950905048522 7.3968948199e-05 0)
(-0.000827362554706 0.000103279160142 0)
(-0.000600508224296 0.000113939805347 0)
(-0.000349015577011 8.26441196558e-05 0)
(-0.000210799648878 5.72628299243e-05 0)
(-0.000121273490126 4.65901534051e-05 0)
(-4.40611102395e-05 4.08061318967e-05 0)
(3.17872585569e-05 3.73049188949e-05 0)
(0.000103353329231 3.27489479235e-05 0)
(0.000165277943291 2.59234003829e-05 0)
(0.000205776946099 1.63880723433e-05 0)
(0.00022219134355 5.67889108999e-06 0)
(0.000233991321775 -5.98223318924e-06 0)
(0.000198695533327 -1.08762650377e-05 0)
(0.000191257974428 -1.40747583797e-05 0)
(0.000134976029374 -1.03890329136e-05 0)
(0.000147165551153 -1.84886920162e-05 0)
(6.51908642357e-05 -1.49187086379e-05 0)
(4.92471752212e-05 -2.91742849543e-05 0)
(-4.54905074286e-05 -0.000220407330437 0)
(-0.000191947767471 -0.00024231640894 0)
(-0.000332349920447 -0.000213784005711 0)
(-0.000424708869145 -0.000171074733066 0)
(-0.000602186616012 -0.000164515204163 0)
(-0.000754320983878 -0.000115862932655 0)
(-0.000843082408054 -7.59646485374e-05 0)
(-0.000905606181246 -9.30117552115e-05 0)
(-0.000971811125176 -0.000115112342656 0)
(-0.00104445011225 -0.000111478895543 0)
(-0.00111257428121 -0.000102652318326 0)
(-0.00117474339259 -9.73164426727e-05 0)
(-0.00123218675526 -8.56692558554e-05 0)
(-0.001283136445 -7.2143444392e-05 0)
(-0.00133183983194 -6.59216561081e-05 0)
(-0.00137784685055 -7.49811563379e-05 0)
(-0.00142437910898 -7.78102318322e-05 0)
(-0.00146366226127 -5.87718969943e-05 0)
(-0.00147394157696 -4.46149788601e-05 0)
(-0.00151366107811 -4.61332492401e-05 0)
(-0.00156443319558 -6.03813177614e-05 0)
(-0.00161697303003 -7.53816346366e-05 0)
(-0.00167153001532 -7.5391586828e-05 0)
(-0.00171722735244 -6.61403777131e-05 0)
(-0.00174812233755 -5.8989024497e-05 0)
(-0.00178933294595 -5.47215376661e-05 0)
(-0.00182736311386 -4.96521889524e-05 0)
(-0.00185804758379 -4.35172257426e-05 0)
(-0.00188442062021 -3.76290071061e-05 0)
(-0.00190789223666 -3.29324543667e-05 0)
(-0.00192778962749 -3.01918495953e-05 0)
(-0.00194172007925 -2.68937647356e-05 0)
(-0.00196012482581 -2.2019900251e-05 0)
(-0.00197469308451 -2.18360080671e-05 0)
(-0.00198715368265 -2.29825729714e-05 0)
(-0.00200997710094 -2.02505065883e-05 0)
(-0.0020215113073 -1.94013431199e-05 0)
(-0.00202669364858 -1.88553501516e-05 0)
(-0.00204152410064 -1.50968774172e-05 0)
(-0.00206250299251 -9.14809176867e-06 0)
(-0.00207024661405 -1.22798510325e-06 0)
(-0.00204044921586 5.85986529791e-06 0)
(-0.00202122529242 1.03078701703e-05 0)
(-0.00201830417383 1.36481739598e-05 0)
(-0.00201035144905 1.74209613883e-05 0)
(-0.00200084723364 2.23181524907e-05 0)
(-0.00198842498595 2.85215196214e-05 0)
(-0.00196924871377 3.5711322035e-05 0)
(-0.00194822358381 4.35105061135e-05 0)
(-0.00192071195237 5.09916255207e-05 0)
(-0.00188077424014 5.71562041501e-05 0)
(-0.00182316015079 6.30200005253e-05 0)
(-0.0017693105258 7.11189269989e-05 0)
(-0.00175098103015 8.66141606188e-05 0)
(-0.00167874354363 0.000106682272833 0)
(-0.00159916180355 0.000122619813277 0)
(-0.00153130171018 0.000131015169155 0)
(-0.00144514993412 0.000139719814203 0)
(-0.00134416810178 0.000157097912551 0)
(-0.00123448394249 0.000178363513565 0)
(-0.00110923541171 0.000201149572384 0)
(-0.000929530715834 0.000228972447475 0)
(-0.00080356021364 0.000305970681396 0)
(-0.000581896681055 0.000341575061747 0)
(-0.00035399477086 0.000269676097349 0)
(-0.00019835279346 0.000176303223731 0)
(-0.000103049904327 0.000130751197095 0)
(-2.75368718467e-05 0.000120063838441 0)
(4.78775351076e-05 0.000112412436188 0)
(0.000119365137513 0.000101194393544 0)
(0.000177692738981 7.76930681324e-05 0)
(0.000214239321397 4.52913320359e-05 0)
(0.000223200056114 1.5659186865e-05 0)
(0.00023953302123 -9.08020673984e-06 0)
(0.000231628051045 -2.77104346825e-05 0)
(0.000214647280823 -3.97139509626e-05 0)
(0.000186919910514 -4.33233008908e-05 0)
(0.000154829559108 -5.66090674248e-05 0)
(9.81325006084e-05 -6.82334076565e-05 0)
(4.63556206759e-05 -0.000117733070184 0)
(-6.57416835634e-05 -0.000379880192204 0)
(-0.000183148433449 -0.000404741310403 0)
(-0.000284519028734 -0.000368958931288 -8.52567922589e-29)
(-0.000467687081215 -0.000361811192739 7.79006093466e-29)
(-0.000633381192851 -0.000347489113086 6.76368850851e-29)
(-0.000742862197487 -0.000277017722706 -6.13103959051e-29)
(-0.000823065132414 -0.000153025235073 6.10809781636e-29)
(-0.000888489196244 -0.000157505688585 -5.86097591578e-29)
(-0.000956885753432 -0.000188017091759 0)
(-0.00103370846327 -0.000188074673414 0)
(-0.0011079095781 -0.000173915561545 0)
(-0.00117314413812 -0.000156726115596 0)
(-0.00123075386831 -0.000137297678042 0)
(-0.00128056815957 -0.000122495653383 0)
(-0.00133088625517 -0.000114231572236 0)
(-0.00137782500835 -0.000103287916934 0)
(-0.00131444105686 -8.23127626783e-05 0)
(-0.00129831296774 -6.91419075809e-05 0)
(-0.0013439189568 -7.93699815702e-05 0)
(-0.00142556056569 -0.000109603785149 0)
(-0.00156041788959 -0.000135189947654 0)
(-0.00163131884134 -0.000136022122398 0)
(-0.00166426252603 -0.000123491603274 0)
(-0.00170983445743 -0.000109713984046 0)
(-0.001755358907 -9.95214418605e-05 0)
(-0.00179194488989 -9.1589207996e-05 0)
(-0.00182529297426 -8.19108162078e-05 0)
(-0.00185639721443 -7.17834749636e-05 0)
(-0.00188344369013 -6.26651585191e-05 0)
(-0.00190617905703 -5.52911923755e-05 -1.05564749247e-28)
(-0.00192794905379 -4.89190346022e-05 1.01937196184e-28)
(-0.00193776415709 -4.32042538794e-05 0)
(-0.00195479956699 -3.70756465206e-05 0)
(-0.00197943868328 -3.30436955004e-05 0)
(-0.00197503807596 -3.69258571213e-05 0)
(-0.001998647583 -3.79691664222e-05 0)
(-0.00202666072883 -3.24676609999e-05 0)
(-0.00202185116073 -3.08476596131e-05 0)
(-0.00203820240186 -2.96962760014e-05 0)
(-0.00206071071954 -1.90953514426e-05 0)
(-0.00206939401632 3.2235384055e-07 0)
(-0.00206513081763 1.51800292253e-05 0)
(-0.00205794708751 1.96325411573e-05 0)
(-0.00205050351054 2.26186350137e-05 0)
(-0.00203983449632 2.84861124319e-05 0)
(-0.00202524752239 3.64270995237e-05 0)
(-0.00200683225774 4.64405754308e-05 0)
(-0.00198441914564 5.77106750487e-05 0)
(-0.0019579992996 7.02116703173e-05 0)
(-0.00192700118807 8.45793237318e-05 0)
(-0.00189061159855 9.94548961913e-05 0)
(-0.00184872192092 0.000111360494948 0)
(-0.00180174380643 0.0001213082775 0)
(-0.00174214377597 0.00014270004218 0)
(-0.00167003915009 0.000171239776245 0)
(-0.0016056859596 0.000193510819605 0)
(-0.00153087504569 0.000212774278188 0)
(-0.00143943926833 0.000236045796587 0)
(-0.00133437687129 0.000265221497663 0)
(-0.00121586178006 0.00030129288245 0)
(-0.00107656094326 0.000348435711441 0)
(-0.000924300677511 0.000417035776896 0)
(-0.000756344794107 0.000524134567425 0)
(-0.000528778523174 0.000538169626029 0)
(-0.000307061117146 0.000400143972028 0)
(-0.000176494810097 0.00029207506898 0)
(-8.14731518306e-05 0.000234765301481 0)
(1.82641532637e-06 0.000201691204782 0)
(7.41888712919e-05 0.000181400256541 0)
(0.000138899601382 0.000156897618167 0)
(0.000191963530574 0.000118794699086 0)
(0.000231450897803 7.42727816456e-05 0)
(0.000265660957063 3.50659594891e-05 0)
(0.000279391877418 -7.2661634319e-06 0)
(0.000261760891875 -4.64511274715e-05 0)
(0.000230871644781 -6.83291549135e-05 0)
(0.000194240886605 -7.98283702493e-05 0)
(0.000156069364333 -0.000108260956493 0)
(0.00011061845616 -0.000161631637735 0)
(2.93082351465e-05 -0.000168160473181 0)
(-6.50788020142e-05 -0.000555761641677 0)
(-9.35628535252e-05 -0.00039034367646 0)
(-0.000232530480618 -0.000549759956008 0)
(-0.000401612034421 -0.000535238185225 0)
(-0.000556969646329 -0.00045360277718 0)
(-0.000352054695435 -0.000191755744122 0)
(-0.000447561529972 -0.000191003421399 0)
(-0.000778500272264 -0.000310462491113 0)
(-0.000912362394999 -0.000308944864241 0)
(-0.00100960101495 -0.000277932141471 0)
(-0.001096263431 -0.000251722510283 0)
(-0.00116923646576 -0.000222544817784 0)
(-0.0012311127893 -0.00019285580448 0)
(-0.00127563528298 -0.000156237911857 0)
(-0.00124747757734 -0.000112879149284 0)
(-0.00121420059752 -8.46756163265e-05 0)
(-0.00122469068282 -8.3692206245e-05 0)
(-0.0012925804275 -0.000118421242108 0)
(-0.0014224413315 -0.000170642358814 0)
(-0.00153147501769 -0.000210276807236 0)
(-0.00157676419644 -0.000210347955276 0)
(-0.00162338685647 -0.000189275434198 0)
(-0.00167198186363 -0.000169901957128 0)
(-0.00171491565102 -0.000154466918238 0)
(-0.00175379950912 -0.000139862555842 0)
(-0.0017892287981 -0.000126143616332 0)
(-0.00182182607841 -0.000113304414514 0)
(-0.00185497112683 -0.000100406764759 0)
(-0.00188026875598 -8.79561066499e-05 0)
(-0.00190718247224 -7.71579382983e-05 0)
(-0.0019206753519 -6.7797398161e-05 0)
(-0.0019426132703 -5.83941035894e-05 0)
(-0.00194418452095 -4.88994673246e-05 0)
(-0.00196474509025 -4.72007187386e-05 0)
(-0.00199565900982 -5.16601782066e-05 0)
(-0.00199514558528 -5.54132503534e-05 0)
(-0.00202184227515 -5.2124088417e-05 0)
(-0.0020468806291 -4.66551895543e-05 0)
(-0.00205678380615 -4.1214589522e-05 0)
(-0.00206374016759 -2.63794513122e-05 0)
(-0.00206798895186 -4.19296613812e-06 0)
(-0.00206677632195 1.43666618143e-05 0)
(-0.00206185005512 2.49217875704e-05 0)
(-0.00205434301 3.26699570235e-05 0)
(-0.00204329427489 4.19834538513e-05 0)
(-0.0020284099787 5.35540617888e-05 8.92213614535e-29)
(-0.00200971412548 6.71544740179e-05 -8.96436122143e-29)
(-0.00198707346065 8.23806982664e-05 0)
(-0.0019603356639 9.92143492113e-05 0)
(-0.00192907894803 0.000117617694533 0)
(-0.00189259511543 0.000136550551727 0)
(-0.00184998282993 0.000155306593111 0)
(-0.00180024771611 0.000177089714583 0)
(-0.00174170357477 0.000206019378446 0)
(-0.00167605038368 0.000236948552858 0)
(-0.00160522663049 0.000266792742208 0)
(-0.00152430388746 0.00029976454748 0)
(-0.00142831503419 0.000338031750652 1.67414181793e-28)
(-0.00131580957667 0.000383544756096 -1.93272371261e-28)
(-0.00118448639118 0.000439746136871 0)
(-0.00103059481883 0.000511648013839 0)
(-0.000857419332579 0.000606909353954 0)
(-0.00067352884508 0.000701785353181 0)
(-0.000497887677913 0.000715750373464 0)
(-0.000318449733976 0.00060066604497 0)
(-0.000148564561945 0.000410734920507 0)
(-4.39493757295e-05 0.000317451301393 0)
(4.01438866104e-05 0.000277509002941 0)
(0.000113377522728 0.000248950190094 0)
(0.000181785934296 0.000220231337216 0)
(0.000245028194584 0.00017624384138 0)
(0.000295883552388 0.000118457774891 0)
(0.000314366225132 4.80295699657e-05 0)
(0.000285294980635 -2.24000927502e-05 0)
(0.000257305239504 -7.2987867451e-05 0)
(0.00022587114499 -0.000109027305412 0)
(0.000177520762814 -0.000130384082938 0)
(0.000107533035191 -0.000131864756832 0)
(7.9156860985e-05 -0.000189117771321 0)
(2.69315826982e-05 -0.000228240741492 0)
(-1.14357312601e-05 -0.000569911322161 0)
(-5.28834510712e-05 -0.000474197645354 0)
(-0.000206981066906 -0.000709829791778 0)
(-0.000345573058152 -0.000654963729656 0)
(-0.000397752028804 -0.000452177824639 0)
(-0.000329341616621 -0.000259519425055 0)
(-0.00054264873066 -0.000399274644568 0)
(-0.000763665050689 -0.000505350086859 0)
(-0.000862970104792 -0.000441202351794 0)
(-0.000975439781617 -0.000381329426739 0)
(-0.00107169283407 -0.000344095511185 0)
(-0.00115382505293 -0.000298671701402 0)
(-0.00118276030293 -0.000219814191324 0)
(-0.00112823315241 -0.000138363499655 0)
(-0.00115413333826 -0.000108615333955 0)
(-0.00121657566202 -0.000120418516264 0)
(-0.00131218835728 -0.000164756310535 0)
(-0.00141830710292 -0.000223560934395 0)
(-0.00149126171933 -0.000260101771127 0)
(-0.00152440881085 -0.00026170930716 0)
(-0.00157204867981 -0.00025358980689 0)
(-0.00162545855962 -0.00023902952991 0)
(-0.00167102662406 -0.000217955811201 0)
(-0.00171330881418 -0.000196462274498 0)
(-0.00175143058129 -0.000177255138589 0)
(-0.00178550308686 -0.000160897897592 0)
(-0.00182145842133 -0.000145080315744 0)
(-0.00184777584629 -0.000129098996936 0)
(-0.00188176858307 -0.000113305072141 0)
(-0.0018960649956 -9.80107509703e-05 0)
(-0.00192568559073 -8.50798048668e-05 -1.01482905772e-28)
(-0.00191623612394 -7.31316765076e-05 9.69382161215e-29)
(-0.00195118184903 -6.70867718024e-05 0)
(-0.00198257843028 -6.49840789742e-05 0)
(-0.00198791206281 -6.94365100469e-05 0)
(-0.00201957523052 -7.55863229674e-05 0)
(-0.00203847109649 -7.42117389113e-05 0)
(-0.00205176304694 -6.3025260794e-05 0)
(-0.00206068448686 -4.80742336976e-05 0)
(-0.0020666532151 -2.92162305322e-05 0)
(-0.00207030181604 -6.5947193359e-06 0)
(-0.00207028964487 1.41210295434e-05 0)
(-0.00206646932859 2.94857141239e-05 0)
(-0.00205910081896 4.2117389573e-05 0)
(-0.00204791148561 5.54421526239e-05 0)
(-0.00203285510231 7.07142628405e-05 0)
(-0.00201394289192 8.80241863134e-05 0)
(-0.00199104095679 0.000107197620086 0)
(-0.00196390940968 0.000128242345076 0)
(-0.00193212199492 0.000151138970765 0)
(-0.00189498259844 0.000175547622807 0)
(-0.00185149430936 0.000201744468713 0)
(-0.00180058978959 0.000231709628453 0)
(-0.00174155629596 0.000266707486512 0)
(-0.00167513507265 0.000304687747722 0)
(-0.00160087026598 0.000345737672587 0)
(-0.00151420947817 0.000393059226961 0)
(-0.00141008398936 0.000449087234575 0)
(-0.00128501234113 0.000516279961474 0)
(-0.00113605071348 0.000597823960687 0)
(-0.000963335285034 0.000694298156366 0)
(-0.000778614210296 0.00079416714792 0)
(-0.000601867171279 0.000859310212839 0)
(-0.00045307002961 0.000876663538383 0)
(-0.00029073438845 0.000780742404239 0)
(-0.000128752820644 0.000569591617405 0)
(-1.00313016857e-05 0.000434969431239 0)
(8.54455881956e-05 0.000364067722695 0)
(0.000164047510603 0.000319067782679 0)
(0.000237951084986 0.000283972115107 0)
(0.000313570244021 0.000236233037069 0)
(0.000354515847085 0.000144082859309 0)
(0.000328087949238 3.17202166965e-05 0)
(0.000303009811863 -5.09119035851e-05 0)
(0.000273304750004 -0.000113201395288 0)
(0.000229093819626 -0.000162794009313 0)
(0.000163232672725 -0.000177696161242 0)
(0.000107072171879 -0.000182662117338 0)
(7.19115582607e-05 -0.000249226351918 0)
(1.98981471846e-05 -0.000267793663693 0)
(-2.14457957089e-06 -0.000540171910922 0)
(-6.06574513302e-05 -0.00057386420202 0)
(-0.000205782067427 -0.000813720275389 0)
(-0.000296967899795 -0.000698102904224 0)
(-0.00024227611258 -0.000369876225485 0)
(-0.000333039390384 -0.000373798412103 0)
(-0.000637174232225 -0.00062012408301 0)
(-0.000729760074195 -0.000618466467785 0)
(-0.000826205138635 -0.000552206149355 0)
(-0.000934711391205 -0.000491663465935 0)
(-0.00103683962744 -0.000422370112827 0)
(-0.00101291312725 -0.000305479891605 0)
(-0.00095451041688 -0.000189727445091 0)
(-0.00102219457813 -0.000160011864966 0)
(-0.00110557042449 -0.000177122413995 0)
(-0.00123998196462 -0.000227190279763 0)
(-0.00136121696961 -0.000275950234563 0)
(-0.00143917286021 -0.000297750155932 0)
(-0.00146428791106 -0.000296761907019 0)
(-0.00151826883515 -0.000304363481794 0)
(-0.0015771199016 -0.000305295843053 0)
(-0.00162391221683 -0.000287899856589 0)
(-0.00166771385981 -0.000263258268224 0)
(-0.00170846906167 -0.000238582251984 0)
(-0.00175075968897 -0.000215807262758 0)
(-0.00178500045048 -0.000193540324634 0)
(-0.00180643669537 -0.000175764312105 0)
(-0.00185137044335 -0.000158759828382 0)
(-0.00186098538119 -0.000137051068653 0)
(-0.00190413987078 -0.000116550358635 0)
(-0.00188539367994 -9.76627449839e-05 0)
(-0.00193153174927 -9.26194887796e-05 0)
(-0.00192058027025 -8.86756025913e-05 0)
(-0.00197130116918 -9.07042018771e-05 0)
(-0.0020133667948 -9.63218709002e-05 0)
(-0.00203287948618 -9.87465392707e-05 0)
(-0.00204594807176 -8.94734666847e-05 0)
(-0.00205668494526 -7.35754311354e-05 0)
(-0.00206493957607 -5.46962736134e-05 0)
(-0.00207090148404 -3.30307828867e-05 0)
(-0.00207449380285 -9.05054982961e-06 0)
(-0.00207496298469 1.39906506686e-05 0)
(-0.00207174536038 3.36679581811e-05 0)
(-0.00206460842407 5.11364635376e-05 0)
(-0.00205346187824 6.8790493743e-05 0)
(-0.00203833487463 8.79999790607e-05 0)
(-0.00201925014481 0.000109173961565 0)
(-0.001996034233 0.000132389240353 0)
(-0.0019683645874 0.000157773402481 0)
(-0.00193579475163 0.000185479368468 0)
(-0.00189766185625 0.000215667545068 0)
(-0.00185304710043 0.000248957842898 0)
(-0.00180102046475 0.000286545327853 0)
(-0.00174097420652 0.000329007664003 0)
(-0.00167246425798 0.000376320872091 0)
(-0.00159328342561 0.000430553324672 0)
(-0.00149843288387 0.000495349490096 0)
(-0.00138255976259 0.00057351900599 0)
(-0.00124206173826 0.000666621442526 0)
(-0.0010761528827 0.000772588752796 0)
(-0.000892592915542 0.000880842707839 0)
(-0.000709060242567 0.00096350189543 0)
(-0.000528114127274 0.000985814577864 0)
(-0.000401010117628 0.00104690276827 0)
(-0.000229636261774 0.000915514453375 0)
(-8.53131766836e-05 0.000689621417508 0)
(3.05165539709e-05 0.000544573473819 0)
(0.000137882202109 0.000455337472171 0)
(0.00022840198738 0.000395160506964 0)
(0.000319750029492 0.000361453259317 0)
(0.000395121506195 0.000287570086754 0)
(0.000388028745535 0.000139005786916 0)
(0.00036136829619 1.12790761219e-05 0)
(0.000344345894297 -8.43496905292e-05 0)
(0.000299574973204 -0.000164778848606 0)
(0.000242849783372 -0.000226280785631 0)
(0.000163469682029 -0.000226783635299 0)
(0.000109068853116 -0.000232181609765 0)
(7.01807704725e-05 -0.000297878385002 0)
(2.06012638458e-05 -0.000306351634748 0)
(-2.14908585253e-05 -0.000588917008372 0)
(-0.000122159644767 -0.000734842523339 0)
(-0.000257217957332 -0.00089122800703 0)
(-0.000306261946415 -0.000838284432992 0)
(-0.000233889849822 -0.000469206355416 0)
(-0.000455645799934 -0.000635133632798 0)
(-0.000638444823435 -0.000750003859709 0)
(-0.000703998692123 -0.000705941896621 0)
(-0.00079661297276 -0.000644227986995 0)
(-0.000868672983868 -0.00058066925159 0)
(-0.00100401492869 -0.000481469536656 2.78360126124e-28)
(-0.000846478008947 -0.000266299261256 -1.84205897016e-28)
(-0.000945486878262 -0.000232726170267 0)
(-0.00100640700736 -0.000241706806159 0)
(-0.00114018224037 -0.0002953785127 0)
(-0.00128295659762 -0.000357762932026 0)
(-0.00137020678161 -0.000366220837169 0)
(-0.00138511429774 -0.000338642528234 0)
(-0.00145073295842 -0.000344852428347 0)
(-0.0015244317304 -0.000362356411052 0)
(-0.00157137982351 -0.000356335677578 0)
(-0.00161952056326 -0.000334835814859 0)
(-0.00166553485504 -0.000308412165825 0)
(-0.00170818146134 -0.000279902571825 0)
(-0.0017412188309 -0.000250550293108 0)
(-0.00176823578942 -0.000223341137601 0)
(-0.00181274631602 -0.000204500614281 0)
(-0.00181355479789 -0.000185725510884 0)
(-0.00187220974524 -0.000161835497365 0)
(-0.0018496037466 -0.000127515428767 0)
(-0.00190671713627 -0.000117033846021 0)
(-0.00189644357971 -0.000115220284085 9.60681143881e-29)
(-0.00194757485914 -0.000117155805472 -9.65507203213e-29)
(-0.00197979424958 -0.00012624148752 0)
(-0.00202398359821 -0.00012857616219 0)
(-0.00204128149501 -0.000117988070552 0)
(-0.0020520744048 -0.00010184726665 0)
(-0.00206184589542 -8.27869507654e-05 0)
(-0.00207028141769 -6.12989671413e-05 0)
(-0.00207653525868 -3.73555402572e-05 0)
(-0.00208019570709 -1.15504467052e-05 0)
(-0.00208089074287 1.40448456538e-05 0)
(-0.00207800318044 3.77140010742e-05 0)
(-0.00207109145654 5.98336501154e-05 0)
(-0.00206004547285 8.19583951003e-05 0)
(-0.00204490345362 0.000105338694055 0)
(-0.00202563222235 0.000130604846074 0)
(-0.00200198219793 0.00015807950682 0)
(-0.00197357573824 0.000188056015086 0)
(-0.00193997932255 0.000220881368595 0)
(-0.00190060155406 0.000257025903031 0)
(-0.00185462929363 0.000297245796705 0)
(-0.00180116718393 0.000342519485879 0)
(-0.001739245024 0.000393823486139 0)
(-0.00166721968603 0.000452898407934 0)
(-0.00158154710854 0.000523337966477 0)
(-0.00147676640029 0.000609188439455 0)
(-0.00134790795421 0.000712250264134 0)
(-0.00119371872213 0.000829791087998 0)
(-0.00101951929513 0.000952414927628 0)
(-0.000836295946098 0.0010605243027 0)
(-0.000658392328426 0.00113032058387 0)
(-0.000495279143142 0.00117325893194 0)
(-0.000355579725527 0.00118110306946 0)
(-0.000197634579817 0.00105616979178 0)
(-3.2079313117e-05 0.000799255529702 0)
(9.44322389778e-05 0.000669594867653 0)
(0.000215454292952 0.000577748278426 0)
(0.000321625075615 0.000504220250251 0)
(0.000413251879193 0.000436075936979 0)
(0.000453297061783 0.000302879968367 0)
(0.000433240312279 0.000131253124639 0)
(0.000431783028122 -5.95322789987e-06 0)
(0.000403654823267 -0.000128705115289 0)
(0.00034251862365 -0.000234792291444 0)
(0.000256163642955 -0.000288776305614 0)
(0.000179207238228 -0.000296371390962 0)
(0.000107457871615 -0.000286942751007 0)
(6.4542048218e-05 -0.000340442527954 0)
(2.1282163619e-05 -0.000353525590536 0)
(-4.14737295784e-05 -0.000685867993071 0)
(-0.000165157544325 -0.000881192148142 0)
(-0.00028264900772 -0.000938283132147 0)
(-0.000209861786609 -0.000615754823121 0)
(-0.000247518051265 -0.000582667152134 0)
(-0.000506409623123 -0.000844239675171 0)
(-0.000595938472388 -0.000837667007743 0)
(-0.000682174944321 -0.000792902062827 0)
(-0.000749890028866 -0.000717637898681 0)
(-0.000844848057702 -0.000647142215139 0)
(-0.000741670692942 -0.000410627645794 0)
(-0.000836367484623 -0.000319036607822 0)
(-0.000926598708695 -0.000310337604718 0)
(-0.001006803778 -0.000343404664128 0)
(-0.00119034497128 -0.000431341050065 0)
(-0.00129342206158 -0.000454117426506 0)
(-0.00130008808261 -0.000407829274468 0)
(-0.00136292119459 -0.000393744753335 0)
(-0.00145649825253 -0.000415599281436 0)
(-0.00151834393312 -0.000420479674768 0)
(-0.00156382160485 -0.000404730775198 0)
(-0.00160911478947 -0.000380956076713 0)
(-0.0016581298016 -0.000355119492964 0)
(-0.00170080723187 -0.000323014229594 0)
(-0.0017460562401 -0.000283835777042 0)
(-0.00175733911871 -0.000255714323506 0)
(-0.00181473079628 -0.000232636010319 0)
(-0.00182427250976 -0.000205680430773 0)
(-0.00182280546464 -0.000178644381893 0)
(-0.0018570762003 -0.000157534240506 0)
(-0.00192497809556 -0.000146432112001 0)
(-0.00192181263877 -0.000137017405894 0)
(-0.0019402785198 -0.000151503871122 0)
(-0.00200761496854 -0.000163548132343 0)
(-0.00203001818436 -0.000155676125455 0)
(-0.0020456802294 -0.000135378139281 0)
(-0.00205798730376 -0.000113809683952 0)
(-0.00206808677459 -9.19464686418e-05 0)
(-0.00207673607387 -6.82716079759e-05 0)
(-0.00208334345806 -4.2153424617e-05 0)
(-0.00208722734957 -1.41618585983e-05 0)
(-0.00208806076376 1.42097908379e-05 0)
(-0.00208538477267 4.170271757e-05 0)
(-0.00207869938605 6.83073517413e-05 0)
(-0.00206779405198 9.49713881681e-05 8.67509418813e-29)
(-0.00205264439638 0.000122746765276 -8.64294275755e-29)
(-0.00203311824079 0.000152398326787 0)
(-0.00200887622336 0.000184448948595 0)
(-0.00197951064887 0.00021933641722 0)
(-0.00194463082505 0.000257560682238 0)
(-0.00190372402746 0.000299810540637 0)
(-0.00185605024278 0.000347054845319 0)
(-0.00180062538364 0.000400598889565 0)
(-0.00173593792915 0.000462377120238 0)
(-0.00165928496878 0.000535669591126 0)
(-0.00156625986857 0.000625032916856 0)
(-0.00145160963235 0.000733952317711 0)
(-0.00131222195216 0.000861288387794 0)
(-0.00115084732123 0.000998756009308 0)
(-0.000975165026487 0.00113240241093 0)
(-0.000792182838405 0.00124180654712 0)
(-0.000613044965919 0.00130545160597 0)
(-0.000450967534776 0.00132473128826 0)
(-0.00031366352774 0.00130138539478 0)
(-0.000192300256597 0.00126648647277 0)
(5.5520477459e-06 0.000960101274675 0)
(0.000169407477175 0.000795052462894 0)
(0.000303996345917 0.000693927941713 0)
(0.000407986799012 0.000590765490271 0)
(0.000482845794032 0.000478102600025 0)
(0.000507132571965 0.000313284679318 0)
(0.000515820443533 0.000141484677736 0)
(0.00053216565142 -2.11157071249e-05 0)
(0.000489717624455 -0.000192562422642 0)
(0.000397395158434 -0.000327467244615 0)
(0.000278398476462 -0.00037513464025 0)
(0.000187525715852 -0.00038206543302 0)
(0.000100844848296 -0.000359598875 0)
(4.75934266454e-05 -0.000381440245484 0)
(1.4715637509e-05 -0.000398141199761 0)
(-5.59586638606e-05 -0.000804286254102 0)
(-0.000182706859252 -0.000997791556583 0)
(-0.000246642176106 -0.000980838204379 0)
(-0.000204145117664 -0.000676138830059 0)
(-0.000324188974006 -0.000755265196107 0)
(-0.000511452714517 -0.000952216535584 0)
(-0.000559745973332 -0.000920422101409 0)
(-0.000662700611388 -0.000875891080551 0)
(-0.000670099054197 -0.000745253809579 0)
(-0.000848835874373 -0.000729366690546 0)
(-0.000721630209721 -0.000457459396755 0)
(-0.000838780660166 -0.000406848537929 0)
(-0.000917266105466 -0.000403941262279 0)
(-0.00105775623858 -0.00047811843817 0)
(-0.0011992767249 -0.000550688555998 0)
(-0.00127754102777 -0.000522932514198 0)
(-0.0012847505086 -0.000459899251206 0)
(-0.00136609127669 -0.000467123071043 0)
(-0.00144705850293 -0.000485396476928 0)
(-0.00150603230559 -0.000477437090954 0)
(-0.00155891899926 -0.000454365842451 0)
(-0.00160185466682 -0.000425175984119 0)
(-0.00164846128062 -0.000397150912231 0)
(-0.00167595997244 -0.000363907647685 0)
(-0.00170687657841 -0.000315125042009 0)
(-0.00177067372263 -0.000285411195206 0)
(-0.00174707026425 -0.000259302235542 0)
(-0.00184511320885 -0.000233251198797 0)
(-0.00181799330767 -0.000205605366242 0)
(-0.00189881192436 -0.000195458768422 0)
(-0.00187593971814 -0.000173277534882 0)
(-0.00195531442305 -0.000171130388414 0)
(-0.00198835131395 -0.000186531589108 1.00116846847e-28)
(-0.00201421338254 -0.00019368660071 -9.93541320632e-29)
(-0.00203442234142 -0.000176658351094 0)
(-0.00205082790734 -0.000151744807973 0)
(-0.00206451464685 -0.000126573289369 0)
(-0.00207540542034 -0.000101755088209 0)
(-0.00208431302674 -7.57154151249e-05 0)
(-0.00209117495229 -4.73813397719e-05 0)
(-0.00209538599088 -1.69786853901e-05 0)
(-0.00209647676433 1.43656121397e-05 0)
(-0.00209400940718 4.56246897486e-05 0)
(-0.00208754892582 7.66011748755e-05 0)
(-0.00207683246892 0.000107866199053 0)
(-0.00206167417546 0.000140284429295 0)
(-0.00204179375483 0.000174674553798 0)
(-0.002016783593 0.000211691681364 0)
(-0.00198623281913 0.000251866407096 0)
(-0.00194978690419 0.000295797285172 0)
(-0.00190700959438 0.000344382258544 0)
(-0.00185721984316 0.000398984384302 0)
(-0.00179930197289 0.000461644354921 0)
(-0.00173121887608 0.000535480575362 0)
(-0.00164953542736 0.000624906776181 0)
(-0.00154966730384 0.000734464984803 0)
(-0.00142747288273 0.000865876631774 0)
(-0.00128223946577 0.00101503353291 0)
(-0.00111917251474 0.00117011886954 0)
(-0.000944147519484 0.00131599298707 0)
(-0.000756609671713 0.00143257878975 0)
(-0.000566848122144 0.00148322474106 0)
(-0.000395276804692 0.00147839061422 0)
(-0.000246878933417 0.0014363919277 0)
(-0.000133557648546 0.0013697746786 0)
(2.22566237184e-05 0.00121873490393 0)
(0.000228936648021 0.000910681615228 0)
(0.000399924778561 0.000815673858984 0)
(0.000499880014498 0.000681151316056 0)