/*--------------------------------*- C++ -*----------------------------------*\
| =========                 |                                                 |
| \\      /  F ield         | OpenFOAM: The Open Source CFD Toolbox           |
|  \\    /   O peration     | Version:  v1806                                 |
|   \\  /    A nd           | Web:      www.OpenFOAM.com                      |
|    \\/     M anipulation  |                                                 |
\*---------------------------------------------------------------------------*/
FoamFile
{
    version     2.0;
    format      ascii;
    class       surfaceScalarField;
    location    "662";
    object      phia;
}
// * * * * * * * * * * * * * * * * * * * * * * * * * * * * * * * * * * * * * //

dimensions      [0 3 -1 0 0 0 0];
oriented        oriented;


internalField   nonuniform List<scalar> 
12640
(
7.12360081869e-08
-7.0019511707e-08
1.34852647696e-07
-6.27521302944e-08
1.90077755161e-07
-5.46007690386e-08
2.36888075285e-07
-4.63304332271e-08
2.72886998315e-07
-3.55410535338e-08
2.97752470989e-07
-2.44204074471e-08
3.17964270365e-07
-1.9812311486e-08
3.47251983051e-07
-2.89277688894e-08
3.86214028326e-07
-3.86444128461e-08
4.24675782173e-07
-3.81870918954e-08
4.61669936001e-07
-3.67643808252e-08
5.00867818346e-07
-3.89905476509e-08
5.38929531302e-07
-3.78719686056e-08
5.74432028895e-07
-3.532539972e-08
6.10001685371e-07
-3.54071660291e-08
6.50213442533e-07
-4.00492686957e-08
6.9270747366e-07
-4.23438695767e-08
7.32997826443e-07
-4.01471117589e-08
7.70536220587e-07
-3.74184313729e-08
8.09057844532e-07
-3.84131751659e-08
8.55137779345e-07
-4.59815338338e-08
9.08549627662e-07
-5.33120654311e-08
9.63840235994e-07
-5.51984565981e-08
1.01832711496e-06
-5.43936693115e-08
1.07121127783e-06
-5.27995980548e-08
1.12286138706e-06
-5.15634499373e-08
1.17445647099e-06
-5.15160978688e-08
1.22551860778e-06
-5.09799013064e-08
1.27540392581e-06
-4.98120722242e-08
1.32455401065e-06
-4.90745179861e-08
1.37431848602e-06
-4.96992010304e-08
1.42413613999e-06
-4.97490965254e-08
1.47326772319e-06
-4.9069466228e-08
1.52408154235e-06
-5.07516967222e-08
1.57641531042e-06
-5.22853554797e-08
1.62948261293e-06
-5.30162472888e-08
1.68370671138e-06
-5.41853148774e-08
1.7371938233e-06
-5.3450757985e-08
1.78857562451e-06
-5.13550944202e-08
1.83852386448e-06
-4.99158403906e-08
1.88926423607e-06
-5.07128969895e-08
1.93732868182e-06
-4.80306367658e-08
1.97756918022e-06
-4.02114118703e-08
2.01238231044e-06
-3.47789686525e-08
2.04433217504e-06
-3.19195732188e-08
2.07297632744e-06
-2.86060036572e-08
2.09785207754e-06
-2.48393829788e-08
2.11792192735e-06
-2.00243920356e-08
2.13318778501e-06
-1.52205312591e-08
2.14700400772e-06
-1.37602860908e-08
2.16345910589e-06
-1.6400376131e-08
2.17746824857e-06
-1.39417722594e-08
2.17703311721e-06
5.08633423742e-10
2.16645128991e-06
1.06720250407e-08
2.14517839291e-06
2.13711272801e-08
2.10837228887e-06
3.69230436119e-08
2.07370210307e-06
3.47969587174e-08
2.0490911215e-06
2.47641915853e-08
2.01774749376e-06
3.15234358923e-08
1.98001423542e-06
3.79492850804e-08
1.95604843773e-06
2.42294201172e-08
1.91991443943e-06
3.65186405426e-08
1.80502586553e-06
1.15458913316e-07
1.61189384924e-06
1.93734772268e-07
1.43956205571e-06
1.72740486095e-07
1.32127230858e-06
1.18599748119e-07
1.21530704179e-06
1.06244276316e-07
1.11010211682e-06
1.05513038301e-07
1.00035365134e-06
1.10110200743e-07
8.81580347655e-07
1.19194032166e-07
7.60884882718e-07
1.2114278291e-07
6.46542872419e-07
1.14773384794e-07
5.4072595244e-07
1.06232765503e-07
4.31873498921e-07
1.09262452441e-07
3.3956660951e-07
9.2692542582e-08
2.60044395447e-07
7.98901640474e-08
2.03747492986e-07
5.6681990907e-08
1.41522227316e-07
6.26116618948e-08
8.58566024673e-08
5.63481765369e-08
8.62947613947e-08
3.7894143154e-08
-1.07484464962e-07
8.72479763191e-08
-1.11511151447e-07
1.3508734214e-07
-1.01992313626e-07
1.84191589118e-07
-9.50444454255e-08
2.44674539814e-07
-9.56133753592e-08
2.91477105345e-07
-7.08009482567e-08
3.21988908445e-07
-4.99003659798e-08
3.53734421662e-07
-6.03093544744e-08
3.89100194352e-07
-7.3685972797e-08
4.27542738014e-07
-7.636374608e-08
4.65867880832e-07
-7.48510711588e-08
5.00915244312e-07
-7.38358027226e-08
5.3520253099e-07
-7.19591362275e-08
5.70359836648e-07
-7.03011298034e-08
6.0709828477e-07
-7.19556760382e-08
6.48500809381e-07
-8.12904644435e-08
6.89275386314e-07
-8.296093063e-08
7.21798831928e-07
-7.25533466326e-08
7.54471368192e-07
-6.99758093625e-08
7.95976902955e-07
-7.98270041294e-08
8.47168621602e-07
-9.70681741211e-08
9.0553932495e-07
-1.11595544329e-07
9.63353337555e-07
-1.12908196855e-07
1.01597875924e-06
-1.06937269391e-07
1.0674830296e-06
-1.04207094872e-07
1.12068625517e-06
-1.04691625766e-07
1.1726287737e-06
-1.03366879272e-07
1.22291833207e-06
-1.01199914838e-07
1.2727413327e-06
-9.95495690835e-08
1.32232030143e-06
-9.85904389969e-08
1.37130908663e-06
-9.8608817686e-08
1.41980340367e-06
-9.81838200466e-08
1.46764862644e-06
-9.68431397107e-08
1.51789026952e-06
-1.00944052584e-07
1.57224763399e-06
-1.06579646627e-07
1.62597208512e-06
-1.06705949707e-07
1.67958624006e-06
-1.07753659548e-07
1.73547514394e-06
-1.09315381905e-07
1.79220026314e-06
-1.0804132726e-07
1.84436680278e-06
-1.02060941455e-07
1.88091985945e-06
-8.72256881702e-08
1.90708202161e-06
-7.41684060908e-08
1.93900992862e-06
-7.209961582e-08
1.97592639586e-06
-7.16711134227e-08
2.01233066507e-06
-6.82832801759e-08
2.04704834163e-06
-6.32947835112e-08
2.07835593938e-06
-5.61000180944e-08
2.10615653384e-06
-4.77869731987e-08
2.1295471329e-06
-3.85547040023e-08
2.1429893372e-06
-2.71530886834e-08
2.14177029222e-06
-1.51133661336e-08
2.13698227786e-06
-9.09107024092e-09
2.15017150053e-06
-1.25980648223e-08
2.15950647411e-06
1.42069089469e-09
2.14764201084e-06
3.33396448647e-08
2.13694165754e-06
4.77305378486e-08
2.12539464409e-06
4.64805082783e-08
2.10315533026e-06
4.71552353013e-08
2.08017422864e-06
5.46933664744e-08
2.05129895663e-06
6.70432417071e-08
1.98010274462e-06
9.57312658201e-08
1.89745270252e-06
1.19577753137e-07
1.77718025829e-06
2.36292161543e-07
1.59622934491e-06
3.75212917616e-07
1.40277409045e-06
3.66602094056e-07
1.23263564547e-06
2.89026953809e-07
1.13029168847e-06
2.08863073469e-07
1.05596907014e-06
1.80137463333e-07
9.66302309744e-07
2.00134827028e-07
8.54069363701e-07
2.31830498542e-07
7.28672147437e-07
2.4696190357e-07
6.06612880854e-07
2.37240464402e-07
5.06863952218e-07
2.06383599759e-07
4.32625051416e-07
1.83919590256e-07
3.61429592469e-07
1.64310932424e-07
2.96016953004e-07
1.45730567011e-07
2.27862691557e-07
1.25300181515e-07
1.67226931772e-07
1.23800247855e-07
8.75011008911e-08
1.36678501717e-07
1.74399308061e-07
4.72849948913e-08
-1.54064626845e-07
7.19066706284e-08
-1.35648496252e-07
1.28253348428e-07
-1.57873717652e-07
1.93004082649e-07
-1.59341548802e-07
2.52893111675e-07
-1.55067862016e-07
2.84973202429e-07
-1.02541272925e-07
3.04612999854e-07
-6.92206163702e-08
3.39203073297e-07
-9.45510418141e-08
3.79121858177e-07
-1.13294758582e-07
4.19074385054e-07
-1.1605140447e-07
4.57924111034e-07
-1.13468363306e-07
4.93673496387e-07
-1.0936354056e-07
5.27745883276e-07
-1.05815422109e-07
5.63333391769e-07
-1.05678060842e-07
5.96588773451e-07
-1.05021173271e-07
6.11339439717e-07
-9.58762922736e-08
6.14526149962e-07
-8.60252796018e-08
6.3668395863e-07
-9.46048919356e-08
6.87580791606e-07
-1.20778092562e-07
7.63986754527e-07
-1.56132086639e-07
8.42740431994e-07
-1.75719701779e-07
9.0291136942e-07
-1.71658768435e-07
9.54784453442e-07
-1.64685123204e-07
1.00938981537e-06
-1.61444376438e-07
1.06375399737e-06
-1.58483593717e-07
1.11507830961e-06
-1.55925826173e-07
1.16539982007e-06
-1.53608422596e-07
1.21576722705e-06
-1.51483609136e-07
1.2656698833e-06
-1.49377998645e-07
1.3155380516e-06
-1.48380033041e-07
1.36380455379e-06
-1.46805335275e-07
1.41190329259e-06
-1.46212941598e-07
1.46162220484e-06
-1.46498521522e-07
1.50820409828e-06
-1.47464002098e-07
1.55924589515e-06
-1.57577330141e-07
1.61936016039e-06
-1.66774917491e-07
1.67510008977e-06
-1.63459113822e-07
1.72864445921e-06
-1.62824756581e-07
1.78720907211e-06
-1.66578044436e-07
1.84318454459e-06
-1.5800043468e-07
1.89359171473e-06
-1.37601507671e-07
1.93905830783e-06
-1.19598620706e-07
1.97836721151e-06
-1.11378204827e-07
2.01347779188e-06
-1.06744865193e-07
2.04570599762e-06
-1.00477584089e-07
2.07455112046e-06
-9.20977652196e-08
2.10020279263e-06
-8.17105623513e-08
2.12234941266e-06
-6.98832082475e-08
2.14051602426e-06
-5.66701011926e-08
2.15532776936e-06
-4.19028484674e-08
2.16775296256e-06
-2.74746021287e-08
2.17513854658e-06
-1.64023355501e-08
2.16802100396e-06
-5.40177656987e-09
2.15325006982e-06
1.6282468151e-08
2.14703446292e-06
3.9650766181e-08
2.14191203712e-06
5.29646305589e-08
2.12635600683e-06
6.21623814271e-08
2.1015653165e-06
7.20979592949e-08
2.07079509788e-06
8.56452640036e-08
2.03034497217e-06
1.07729449182e-07
1.97962234115e-06
1.46754587872e-07
1.86966624153e-06
2.29936764831e-07
1.66406928985e-06
4.42370784641e-07
1.41909702801e-06
6.20621444065e-07
1.24460588114e-06
5.41409859123e-07
1.16781608618e-06
3.66088877968e-07
1.08202495281e-06
2.94913398673e-07
9.79300083405e-07
2.83139769688e-07
8.71610876318e-07
3.08134547465e-07
7.56635026652e-07
3.47156916853e-07
6.49117623059e-07
3.54854516344e-07
5.66649424915e-07
3.2009998902e-07
4.97088990596e-07
2.76355832652e-07
4.28380087634e-07
2.53049069591e-07
3.49782350154e-07
2.43333374246e-07
2.71220032505e-07
2.24742152764e-07
2.04611683384e-07
1.92354318947e-07
1.54580404839e-07
1.74274208146e-07
6.67576171999e-08
2.25343568287e-07
2.41327585856e-07
3.2566698614e-08
-1.86339068553e-07
4.4439550583e-08
-1.47184794414e-07
1.06718489646e-07
-2.19697192589e-07
1.58985334456e-07
-2.11160525407e-07
1.65294599344e-07
-1.61057713916e-07
1.48794583506e-07
-8.58833970598e-08
2.06341088628e-07
-1.26552617317e-07
2.95792998558e-07
-1.83700421958e-07
3.57471902453e-07
-1.74676614851e-07
4.03454734532e-07
-1.61770645471e-07
4.45513358923e-07
-1.55280091091e-07
4.83638046162e-07
-1.47242841361e-07
5.15273844934e-07
-1.37216370924e-07
5.28902257626e-07
-1.19095912432e-07
5.28415018185e-07
-1.04361381137e-07
5.39328138289e-07
-1.066588698e-07
5.79357407188e-07
-1.25943265533e-07
6.47536916194e-07
-1.6268009066e-07
7.27973494477e-07
-2.01102404438e-07
7.92823744564e-07
-2.20866802174e-07
8.4205015316e-07
-2.24829842249e-07
8.94174562592e-07
-2.23674927807e-07
9.48793220952e-07
-2.19197666728e-07
1.00147112424e-06
-2.14024623561e-07
1.05286799768e-06
-2.09783854915e-07
1.10349490361e-06
-2.06464648723e-07
1.15442975023e-06
-2.04454666425e-07
1.20499495764e-06
-2.01968976111e-07
1.25552749541e-06
-1.99828910954e-07
1.30449404773e-06
-1.9726996755e-07
1.35428504804e-06
-1.9652028175e-07
1.40084304984e-06
-1.92700218066e-07
1.44570793877e-06
-1.91300863695e-07
1.5021903755e-06
-2.03894520055e-07
1.55888543897e-06
-2.14223138641e-07
1.614837847e-06
-2.22688670896e-07
1.6809979456e-06
-2.29581801605e-07
1.74448301565e-06
-2.26276064381e-07
1.7965034302e-06
-2.18560899574e-07
1.84382533986e-06
-2.05288655603e-07
1.89153418891e-06
-1.85274793995e-07
1.9377619181e-06
-1.65793765263e-07
1.9789527932e-06
-1.52532005121e-07
2.01512973895e-06
-1.42885142432e-07
2.04748707957e-06
-1.32792582452e-07
2.07634255485e-06
-1.20910077016e-07
2.10182568519e-06
-1.07144127054e-07
2.12375424259e-06
-9.17603458272e-08
2.14196453888e-06
-7.48216206618e-08
2.15663687313e-06
-5.65130122479e-08
2.16724568423e-06
-3.80126503565e-08
2.17113886003e-06
-2.02192512796e-08
2.16642382556e-06
-6.02080251046e-10
2.15895874828e-06
2.38357611203e-08
2.15128411851e-06
4.74222122269e-08
2.13872256709e-06
6.56309130682e-08
2.11864708744e-06
8.23607694945e-08
2.0892218721e-06
1.01668289189e-07
2.04690164409e-06
1.28144966993e-07
1.98364408276e-06
1.71214732449e-07
1.88220573425e-06
2.48486588174e-07
1.72107294007e-06
3.91416350279e-07
1.55519668893e-06
6.08590040736e-07
1.4046568222e-06
7.71479999599e-07
1.23203368928e-06
7.14333251281e-07
1.08515634558e-06
5.1321253507e-07
9.77007594335e-07
4.03291958575e-07
8.8536775853e-07
3.75013470967e-07
7.99647868852e-07
3.9411739805e-07
7.10931270678e-07
4.3617281764e-07
6.17269815693e-07
4.48860252338e-07
5.27544828925e-07
4.10197870531e-07
4.41065678684e-07
3.63198627799e-07
3.57701298914e-07
3.3676317683e-07
2.80743155903e-07
3.20662009451e-07
2.01855219835e-07
3.04023639873e-07
1.33531990282e-07
2.61058492406e-07
8.97323812934e-08
2.1847860716e-07
4.60272138163e-08
2.69266602369e-07
2.87727205759e-07
5.75016743369e-09
-1.91695414131e-07
3.78504919002e-08
-1.78997500446e-07
8.66182886845e-08
-2.68042400654e-07
1.2380995005e-07
-2.47941146068e-07
1.17842797223e-07
-1.54865140469e-07
1.50636663554e-07
-1.18523333429e-07
2.23698888191e-07
-1.99387900329e-07
2.79460020158e-07
-2.39170067012e-07
3.29489430551e-07
-2.24428241791e-07
3.78188252944e-07
-2.10190630762e-07
4.25199269779e-07
-2.02012892877e-07
4.54961666663e-07
-1.76756915062e-07
4.58666553886e-07
-1.40708492819e-07
4.62343061998e-07
-1.22604125302e-07
4.92194714636e-07
-1.34076168197e-07
5.47764421338e-07
-1.62101607846e-07
6.19640419384e-07
-1.97695920752e-07
6.87466907626e-07
-2.30381519675e-07
7.36491318329e-07
-2.50001065396e-07
7.79158303917e-07
-2.63408066052e-07
8.29137028173e-07
-2.74686703054e-07
8.82541439459e-07
-2.76962109549e-07
9.35560543057e-07
-2.7210661948e-07
9.87218650365e-07
-2.65576253666e-07
1.03805644284e-06
-2.60523045212e-07
1.0892511785e-06
-2.57562934242e-07
1.1394327396e-06
-2.54550631773e-07
1.19068370021e-06
-2.53133401535e-07
1.23995837527e-06
-2.49019254899e-07
1.28944805343e-06
-2.4667645856e-07
1.334633789e-06
-2.41629997424e-07
1.38510602343e-06
-2.43105974549e-07
1.44426019194e-06
-2.50397737977e-07
1.49874931723e-06
-2.58333941298e-07
1.55960924786e-06
-2.75040774845e-07
1.62701979957e-06
-2.90057808652e-07
1.68790251773e-06
-2.9042492606e-07
1.74366201074e-06
-2.81994935979e-07
1.79489418647e-06
-2.69755091661e-07
1.84328451056e-06
-2.5364079314e-07
1.89121315362e-06
-2.33167129295e-07
1.9376580152e-06
-2.12200440617e-07
1.97988793218e-06
-1.94723229587e-07
2.01713029559e-06
-1.80084596122e-07
2.05004131254e-06
-1.65658304775e-07
2.07912882243e-06
-1.49947264986e-07
2.10457226778e-06
-1.32534436374e-07
2.12628029628e-06
-1.13409982348e-07
2.14408401714e-06
-9.25632088717e-08
2.15778095017e-06
-7.01412785381e-08
2.1665401551e-06
-4.66975633454e-08
2.16880169598e-06
-2.23999840434e-08
2.16450186246e-06
3.78260109641e-09
2.15660670892e-06
3.18198956021e-08
2.14566526352e-06
5.8455468575e-08
2.12846510625e-06
8.29326819021e-08
2.1013303664e-06
1.09610128222e-07
2.05905446325e-06
1.44080578488e-07
1.99359416268e-06
1.93775305978e-07
1.89452087255e-06
2.70497172579e-07
1.7547972516e-06
3.8845104699e-07
1.59378810501e-06
5.52666954341e-07
1.46918762623e-06
7.3343484669e-07
1.35294381546e-06
8.87983081181e-07
1.22792105923e-06
8.3959126954e-07
1.07838918556e-06
6.62951304517e-07
9.28929916968e-07
5.52932240258e-07
8.06408329149e-07
4.9771769502e-07
7.10682981925e-07
4.90030567609e-07
6.23950968798e-07
5.23137921822e-07
5.3230664327e-07
5.40781994761e-07
4.46638187474e-07
4.96147185557e-07
3.68906782097e-07
4.41192489499e-07
2.91636930777e-07
4.14311849014e-07
2.1459633497e-07
3.9802363676e-07
1.44810054128e-07
3.74158073541e-07
1.03557473093e-07
3.0258342081e-07
6.38716386667e-08
2.58359626615e-07
2.51359525719e-08
3.08605767896e-07
3.1291130784e-07
1.94065083889e-09
-1.93550137352e-07
4.4494330633e-08
-2.21294977204e-07
7.01181166653e-08
-2.93287591225e-07
8.72768062756e-08
-2.64799656583e-07
8.59459610741e-08
-1.53371009695e-07
1.58473153998e-07
-1.90864679505e-07
2.27484231081e-07
-2.68134746942e-07
2.62229610987e-07
-2.73650575614e-07
3.03379902366e-07
-2.65278240092e-07
3.45240786626e-07
-2.51763885072e-07
3.72825368158e-07
-2.29322101058e-07
3.66369892066e-07
-1.70089994051e-07
3.73744693107e-07
-1.47922184923e-07
4.12051092823e-07
-1.60773740909e-07
4.73303366593e-07
-1.95198997147e-07
5.51683184327e-07
-2.40348619539e-07
6.23297171868e-07
-2.69169497814e-07
6.70900482397e-07
-2.77843386373e-07
7.11618224619e-07
-2.90581143928e-07
7.62568482755e-07
-3.1422322979e-07
8.15260901305e-07
-3.27248425661e-07
8.66083057387e-07
-3.27659668525e-07
9.17400662827e-07
-3.23306346455e-07
9.69573056332e-07
-3.1763956709e-07
1.02079247989e-06
-3.11636771272e-07
1.06804740596e-06
-3.04721292876e-07
1.11954390717e-06
-3.05952249696e-07
1.16926533626e-06
-3.0276500058e-07
1.21958640217e-06
-2.99254529017e-07
1.26230161871e-06
-2.89310204289e-07
1.31021516963e-06
-2.89468932763e-07
1.36362373193e-06
-2.9645184647e-07
1.41953586399e-06
-3.06258267017e-07
1.49289178373e-06
-3.31644194147e-07
1.5667847594e-06
-3.48889857262e-07
1.63011104923e-06
-3.53339752011e-07
1.68717238357e-06
-3.47441364992e-07
1.74121914772e-06
-3.35997904752e-07
1.79285566749e-06
-3.2134853215e-07
1.8426020635e-06
-3.03346088494e-07
1.8912603878e-06
-2.81784875961e-07
1.93807445603e-06
-2.58973575297e-07
1.9811164861e-06
-2.37721297116e-07
2.01939797772e-06
-2.18318856218e-07
2.05309638052e-06
-1.99305080901e-07
2.08260325458e-06
-1.79398894868e-07
2.10809339059e-06
-1.57964986722e-07
2.12946076752e-06
-1.34713986216e-07
2.14644059134e-06
-1.09475186713e-07
2.15863091141e-06
-8.22590503617e-08
2.16530484566e-06
-5.32936780744e-08
2.16570049547e-06
-2.27135423088e-08
2.16013173287e-06
9.43549249644e-09
2.14975289228e-06
4.22830958195e-08
2.13362244758e-06
7.46737728196e-08
2.10800245803e-06
1.08645192322e-07
2.06756637858e-06
1.5015604713e-07
2.00521132436e-06
2.06559984642e-07
1.91297671031e-06
2.86156021596e-07
1.78715243922e-06
3.96489593216e-07
1.63547440314e-06
5.40312971869e-07
1.48276625508e-06
7.05562860986e-07
1.37229885435e-06
8.44079492477e-07
1.25595021674e-06
1.00450209433e-06
1.11188691677e-06
9.83845703177e-07
9.87960477974e-07
7.87042874353e-07
8.50210419629e-07
6.90853686405e-07
7.20690192827e-07
6.27392713875e-07
6.17133081309e-07
5.93768710624e-07
5.25371764596e-07
6.15104320183e-07
4.40028037431e-07
6.26343929236e-07
3.73588107215e-07
5.62796829399e-07
3.01793580833e-07
5.13198264017e-07
2.26773680756e-07
4.8957149312e-07
1.57089103771e-07
4.67985174478e-07
1.11320363592e-07
4.20186639649e-07
7.39974293951e-08
3.40167392662e-07
3.96501677733e-08
2.93079190881e-07
1.69771368486e-08
3.31342486236e-07
3.30224908645e-07
1.59109057255e-08
-2.09197326781e-07
6.27221454233e-08
-2.67829272293e-07
8.26753053891e-08
-3.12862542075e-07
6.95420283288e-08
-2.5138943926e-07
9.81328151979e-08
-1.81794582863e-07
1.74973117609e-07
-2.67477744596e-07
2.12188329286e-07
-3.0509955109e-07
2.41614756106e-07
-3.02780404214e-07
2.7123637057e-07
-2.94629680511e-07
3.12510701573e-07
-2.92726088482e-07
3.13071923623e-07
-2.29639457249e-07
3.14750456218e-07
-1.71592434706e-07
3.50717274482e-07
-1.83745753889e-07
4.01020131923e-07
-2.10951757141e-07
4.75111154171e-07
-2.69148936558e-07
5.48586858116e-07
-3.13662827523e-07
5.95052898039e-07
-3.154774373e-07
6.33947707055e-07
-3.16589949812e-07
6.88169093307e-07
-3.44656422773e-07
7.43796032684e-07
-3.69705298122e-07
7.94716516727e-07
-3.78028930002e-07
8.45360207293e-07
-3.78170857727e-07
8.97091864277e-07
-3.74916687486e-07
9.46599684843e-07
-3.67029375522e-07
9.9386100957e-07
-3.58787740036e-07
1.04236789292e-06
-3.53125782482e-07
1.08998905021e-06
-3.53477034418e-07
1.14092493658e-06
-3.5361059166e-07
1.18661388747e-06
-3.44856490577e-07
1.23060353708e-06
-3.33219293513e-07
1.28718749363e-06
-3.45983194976e-07
1.34760276887e-06
-3.5680729205e-07
1.41894118917e-06
-3.77546876387e-07
1.49256891698e-06
-4.05224772594e-07
1.56472422277e-06
-4.20996080593e-07
1.62680061159e-06
-4.15366279448e-07
1.68327747495e-06
-4.03869308545e-07
1.73771047826e-06
-3.90383048542e-07
1.790636156e-06
-3.74227985012e-07
1.84191046738e-06
-3.54575082189e-07
1.89160596822e-06
-3.31435282932e-07
1.93908721944e-06
-3.06408137163e-07
1.98296294235e-06
-2.81547753001e-07
2.02226756797e-06
-2.57570341497e-07
2.05685424976e-06
-2.33834830376e-07
2.08689063146e-06
-2.09374272975e-07
2.11241950062e-06
-1.83429247391e-07
2.13323974269e-06
-1.5546608412e-07
2.14898963555e-06
-1.25153455549e-07
2.15920598848e-06
-9.2399903552e-08
2.16332612176e-06
-5.73348868075e-08
2.16093364764e-06
-2.02408768778e-08
2.15207049022e-06
1.83782423672e-08
2.13648179456e-06
5.79507932432e-08
2.11188709161e-06
9.93455042002e-08
2.07364870194e-06
1.46976775565e-07
2.01577634715e-06
2.08123122359e-07
1.93325870687e-06
2.89181731322e-07
1.82556916532e-06
3.93963430902e-07
1.69904340367e-06
5.23153527682e-07
1.5693749241e-06
6.70136147403e-07
1.45785240357e-06
8.17237458144e-07
1.3401542427e-06
9.61925667535e-07
1.22133849411e-06
1.12350441733e-06
1.03100644638e-06
1.17436474302e-06
8.87264107269e-07
9.30989518741e-07
7.71385676344e-07
8.06908778645e-07
6.45949813194e-07
7.53054079056e-07
5.2705290391e-07
7.12862305006e-07
4.28746662888e-07
7.13613209899e-07
3.65951403877e-07
6.89338077734e-07
3.08956656344e-07
6.19969267912e-07
2.37089779822e-07
5.85253563449e-07
1.66934020698e-07
5.59941433265e-07
1.10385322813e-07
5.24762742144e-07
8.11598854603e-08
4.49669445868e-07
4.25026300929e-08
3.79051567404e-07
1.13511451155e-08
3.24359713009e-07
6.0240975926e-09
3.3729294408e-07
3.36252130745e-07
2.84991687398e-08
-2.37614161649e-07
6.63549971813e-08
-3.0540916499e-07
7.49516577238e-08
-3.21216252559e-07
4.95553725703e-08
-2.25813436769e-07
1.04735650178e-07
-2.3678695294e-07
1.6293237352e-07
-3.25433205084e-07
1.91010272124e-07
-3.3290027605e-07
2.20667766047e-07
-3.3217154519e-07
2.3169800099e-07
-3.05338698235e-07
2.52786083131e-07
-3.13556229045e-07
2.47095964902e-07
-2.23754870311e-07
2.87077090571e-07
-2.11421685028e-07
3.2985883571e-07
-2.26391545332e-07
3.94491078586e-07
-2.75438861758e-07
4.67580639333e-07
-3.4207099151e-07
5.15935125575e-07
-3.61840243979e-07
5.51129594696e-07
-3.50505431302e-07
6.05208573568e-07
-3.70509203646e-07
6.65045371841e-07
-4.04335047041e-07
7.17684134328e-07
-4.2218845303e-07
7.67517740734e-07
-4.27715247845e-07
8.17653012921e-07
-4.28171334353e-07
8.70826812151e-07
-4.27957460724e-07
9.23070159039e-07
-4.19148087023e-07
9.67190004878e-07
-4.02794926144e-07
1.01924861879e-06
-4.05075414126e-07
1.06538695002e-06
-3.99514668609e-07
1.1080275185e-06
-3.96157451003e-07
1.15279070281e-06
-3.89535344112e-07
1.22179920333e-06
-4.02150346527e-07
1.28137381642e-06
-4.05487663006e-07
1.33889221306e-06
-4.14269537268e-07
1.41397895506e-06
-4.52581282825e-07
1.49330798621e-06
-4.84500876468e-07
1.55860340118e-06
-4.86237492272e-07
1.61900818656e-06
-4.75716978122e-07
1.67710048195e-06
-4.61908496512e-07
1.73340498652e-06
-4.46635596127e-07
1.78813617277e-06
-4.28908288274e-07
1.84115080272e-06
-4.07539454721e-07
1.89220310814e-06
-3.82437139703e-07
1.9406929978e-06
-3.54845999417e-07
1.98559082194e-06
-3.26390561999e-07
2.02600943645e-06
-2.97930248283e-07
2.0615748519e-06
-2.69337849786e-07
2.09219364393e-06
-2.39927253214e-07
2.11769837081e-06
-2.0886552733e-07
2.13773727122e-06
-1.75434393444e-07
2.15185395695e-06
-1.3919730238e-07
2.1595527809e-06
-1.00024294863e-07
2.16032105762e-06
-5.80281635001e-08
2.15369863723e-06
-1.35448452744e-08
2.13913876576e-06
3.30089041299e-08
2.11521454958e-06
8.19390985684e-08
2.07873622258e-06
1.35904225251e-07
2.02515553077e-06
2.00643345773e-07
1.9506548748e-06
2.82701863311e-07
1.85682492179e-06
3.83114454254e-07
1.75056576462e-06
5.00302498453e-07
1.63929783203e-06
6.34532427395e-07
1.53018845165e-06
7.79377356016e-07
1.42765395015e-06
9.1991545827e-07
1.33254991193e-06
1.05716831047e-06
1.26146025549e-06
1.19473247589e-06
1.09681174484e-06
1.33920552371e-06
8.29453723965e-07
1.19849087817e-06
6.64462060685e-07
9.72144412944e-07
5.31322490978e-07
8.863896302e-07
4.14165899407e-07
8.3026045649e-07
3.39015887865e-07
7.8896342644e-07
2.9774702821e-07
7.30769283401e-07
2.42145786168e-07
6.75732214941e-07
1.74914756895e-07
6.52662318593e-07
1.12421267532e-07
6.22643012596e-07
6.94754292496e-08
5.67929892374e-07
3.62411769289e-08
4.83145904843e-07
2.18830673071e-09
4.13385416081e-07
-2.44687372365e-08
3.51457312445e-07
-1.69312565111e-08
3.29750108739e-07
3.19700270114e-07
3.49024182508e-08
-2.72207997441e-07
5.9747817196e-08
-3.29965610532e-07
5.43223105126e-08
-3.15500831239e-07
5.89641079652e-08
-2.30280929025e-07
1.17862357307e-07
-2.95470632237e-07
1.41918967147e-07
-3.49227811441e-07
1.66897893353e-07
-3.57599956094e-07
1.94841039073e-07
-3.59828305158e-07
2.03593629431e-07
-3.13840909815e-07
2.17316932999e-07
-3.27005184376e-07
2.32181453601e-07
-2.38453964656e-07
2.68665880927e-07
-2.47755203957e-07
3.15204830423e-07
-2.72796758695e-07
3.85252320832e-07
-3.45325661216e-07
4.46415301076e-07
-4.03032724293e-07
4.80077032646e-07
-3.9530813063e-07
5.20538035699e-07
-3.90790464496e-07
5.77313095679e-07
-4.27113796252e-07
6.34106565603e-07
-4.60959157432e-07
6.86683014302e-07
-4.74604015744e-07
7.37221350953e-07
-4.78104646094e-07
7.85208452448e-07
-4.76008700042e-07
8.33197283178e-07
-4.75802349736e-07
8.8263217785e-07
-4.68453621371e-07
9.27264256427e-07
-4.47304604545e-07
9.7571533533e-07
-4.53414248244e-07
1.02833953393e-06
-4.5203742208e-07
1.08445762724e-06
-4.52179739785e-07
1.14280442956e-06
-4.47793587571e-07
1.19874222217e-06
-4.58011055339e-07
1.26124021804e-06
-4.67922988791e-07
1.34355018285e-06
-4.96522639126e-07
1.41933732883e-06
-5.28313162907e-07
1.48490382212e-06
-5.50009961236e-07
1.54781292922e-06
-5.49086903985e-07
1.60940380902e-06
-5.37248653278e-07
1.66966862231e-06
-5.22115601756e-07
1.72827499057e-06
-5.0518578666e-07
1.78515380641e-06
-4.85731708009e-07
1.84018451055e-06
-4.62514928429e-07
1.89299190195e-06
-4.35188372861e-07
1.94292528943e-06
-4.04721245337e-07
1.98914327015e-06
-3.72547545265e-07
2.03086389054e-06
-3.39586974729e-07
2.0675451502e-06
-3.0595245572e-07
2.0988015187e-06
-2.71115319265e-07
2.1242146196e-06
-2.34209824265e-07
2.14325865506e-06
-1.94408912083e-07
2.15535591936e-06
-1.51225916396e-07
2.15991893879e-06
-1.04518234706e-07
2.15630719256e-06
-5.4350518422e-08
2.14372042763e-06
-8.9495757106e-10
2.12088267124e-06
5.59015057351e-08
2.08557102243e-06
1.17319576802e-07
2.0346472249e-06
1.86909100977e-07
1.96568749635e-06
2.69676826565e-07
1.87911105411e-06
3.6938411514e-07
1.78435005168e-06
4.77913355486e-07
1.69107151978e-06
5.93668721603e-07
1.59623129842e-06
7.29483669775e-07
1.49177957039e-06
8.83964202089e-07
1.38816313997e-06
1.02364605151e-06
1.30852340352e-06
1.13690028592e-06
1.24926469884e-06
1.25408819081e-06
1.19187986234e-06
1.39665970747e-06
9.18135940922e-07
1.47247668936e-06
5.7070956131e-07
1.31976565557e-06
4.16099610863e-07
1.04130843901e-06
3.12850497532e-07
9.33758161455e-07
2.55168432765e-07
8.46866799864e-07
2.22008500348e-07
7.64123156696e-07
1.76997527269e-07
7.20935173104e-07
1.19232466412e-07
7.10652058956e-07
6.23730869425e-08
6.79721751417e-07
1.78556870578e-08
6.12743752325e-07
-2.65853179646e-08
5.27924740653e-07
-5.71759082978e-08
4.44290487916e-07
-6.91792722637e-08
3.63620993516e-07
-4.49616958967e-08
3.06248139123e-07
2.74727038651e-07
3.7369232834e-08
-3.09490434571e-07
5.82554264192e-08
-3.50621507987e-07
4.28317905028e-08
-2.99871602441e-07
6.51230674402e-08
-2.52362025712e-07
1.11939857804e-07
-3.42019079337e-07
1.20723409447e-07
-3.57726306373e-07
1.39909416827e-07
-3.76520865729e-07
1.53991914968e-07
-3.73629928915e-07
1.77009494251e-07
-3.36634093405e-07
1.72931417949e-07
-3.22722976842e-07
2.05380490236e-07
-2.70738131456e-07
2.47439295704e-07
-2.89680440066e-07
2.95846972859e-07
-3.21044791049e-07
3.57765689264e-07
-4.07048324058e-07
4.01830273709e-07
-4.4689287535e-07
4.28631629847e-07
-4.21913192238e-07
4.8056169605e-07
-4.42534105147e-07
5.40385020068e-07
-4.86753401734e-07
5.96002060926e-07
-5.16398746857e-07
6.5018769393e-07
-5.28621382674e-07
7.03554932186e-07
-5.3130311171e-07
7.54411278365e-07
-5.2670752788e-07
7.97931136287e-07
-5.19174269644e-07
8.4314959356e-07
-5.13531981003e-07
8.96274257728e-07
-5.00306259769e-07
9.41054142868e-07
-4.9807852781e-07
9.87092791475e-07
-4.97965820644e-07
1.03225867345e-06
-4.9724560829e-07
1.10032016099e-06
-5.15769393185e-07
1.17187300358e-06
-5.29489601315e-07
1.24789272348e-06
-5.43879920258e-07
1.32327428009e-06
-5.71848024519e-07
1.4043222772e-06
-6.09302251668e-07
1.47247448487e-06
-6.18097849371e-07
1.53559407722e-06
-6.12141486934e-07
1.59858208614e-06
-6.00173107601e-07
1.66115875259e-06
-5.8463053599e-07
1.72233108349e-06
-5.66297232923e-07
1.7816711047e-06
-5.45011248202e-07
1.8390106884e-06
-5.19793574337e-07
1.89394674419e-06
-4.90062477228e-07
1.94578441794e-06
-4.56495017753e-07
1.99372864631e-06
-4.20425944858e-07
2.03703949146e-06
-3.82830146028e-07
2.07505317199e-06
-3.43898188089e-07
2.10709678987e-06
-3.03092396749e-07
2.13243916115e-06
-2.5948688179e-07
2.15034551273e-06
-2.12253742685e-07
2.16011075368e-06
-1.60929797241e-07
2.16096892278e-06
-1.05321853489e-07
2.15195607352e-06
-4.52840224026e-08
2.13168801387e-06
1.94183031719e-08
2.09812561654e-06
8.95088980692e-08
2.0487661186e-06
1.6674698124e-07
1.98202291484e-06
2.53751518744e-07
1.90016080824e-06
3.51628861638e-07
1.80585027644e-06
4.63755670185e-07
1.7156511087e-06
5.68205317261e-07
1.6401080789e-06
6.69286080554e-07
1.55968051711e-06
8.09964584091e-07
1.44602413513e-06
9.97760548591e-07
1.32314811061e-06
1.14658266127e-06
1.24416809674e-06
1.21586560246e-06
1.1983476874e-06
1.29983561041e-06
1.18592750792e-06
1.40910286315e-06
1.09460854064e-06
1.56380978845e-06
7.1140007947e-07
1.70322057824e-06
3.08812927132e-07
1.44409712553e-06
1.97523120766e-07
1.04530334266e-06
1.51936983607e-07
8.92625245248e-07
1.33825898605e-07
7.82363778032e-07
1.21927602384e-07
7.32992695693e-07
7.75769845082e-08
7.55232275836e-07
1.72896179427e-08
7.40316833933e-07
-4.69580028366e-08
6.77352261836e-07
-1.04741124132e-07
5.8605636413e-07
-1.32450464251e-07
4.7250120151e-07
-1.18921841758e-07
3.50625403324e-07
-7.0979496142e-08
2.58236539053e-07
2.04107787156e-07
3.17684083874e-08
-3.40899030362e-07
4.82544989709e-08
-3.668101556e-07
3.99103791387e-08
-2.91306716178e-07
7.30162293889e-08