/*--------------------------------*- C++ -*----------------------------------*\
| =========                 |                                                 |
| \\      /  F ield         | OpenFOAM: The Open Source CFD Toolbox           |
|  \\    /   O peration     | Version:  v1806                                 |
|   \\  /    A nd           | Web:      www.OpenFOAM.com                      |
|    \\/     M anipulation  |                                                 |
\*---------------------------------------------------------------------------*/
FoamFile
{
    version     2.0;
    format      ascii;
    class       surfaceScalarField;
    location    "701";
    object      phi;
}
// * * * * * * * * * * * * * * * * * * * * * * * * * * * * * * * * * * * * * //

dimensions      [0 3 -1 0 0 0 0];
oriented        oriented;


internalField   nonuniform List<scalar> 
12640
(
-2.48894439982e-07
2.49698749429e-07
-4.69029488225e-07
2.2079752704e-07
-6.56059085551e-07
1.87522203478e-07
-8.10406460075e-07
1.54746408673e-07
-9.23823614461e-07
1.13768017832e-07
-9.95891156395e-07
7.24106246726e-08
-1.04725655422e-06
5.1683953067e-08
-1.12173312207e-06
7.47641719171e-08
-1.22049746112e-06
9.90272972582e-08
-1.31249938421e-06
9.2232391301e-08
-1.39595971084e-06
8.36543342597e-08
-1.48010493285e-06
8.43203612452e-08
-1.55409017802e-06
7.41454787081e-08
-1.61402393789e-06
6.00835644588e-08
-1.66786130435e-06
5.39773976291e-08
-1.72822652758e-06
6.05008018361e-08
-1.78988683464e-06
6.17878932343e-08
-1.84115306248e-06
5.13876081269e-08
-1.88089102508e-06
3.98472710924e-08
-1.91763601283e-06
3.68480845396e-08
-1.96613728666e-06
4.85990923699e-08
-2.02656691213e-06
6.05250382351e-08
-2.08780043305e-06
6.13233441127e-08
-2.1444892015e-06
5.67750034983e-08
-2.19524033516e-06
5.08315617131e-08
-2.24040008587e-06
4.52381240017e-08
-2.28193947867e-06
4.16140338415e-08
-2.31896521634e-06
3.70997464412e-08
-2.35060713543e-06
3.17125133202e-08
-2.3780202306e-06
2.74832748666e-08
-2.40376917529e-06
2.58157807914e-08
-2.42694482976e-06
2.32430008361e-08
-2.44598535806e-06
1.91068583838e-08
-2.46451872514e-06
1.8600113976e-08
-2.48289291958e-06
1.84383908524e-08
-2.49995029886e-06
1.71228542935e-08
-2.51697805536e-06
1.70903275431e-08
-2.53228688181e-06
1.53703749653e-08
-2.54354287252e-06
1.13152877478e-08
-2.55117202028e-06
7.68998904437e-09
-2.55859978963e-06
7.48660865718e-09
-2.56281372454e-06
4.27244403392e-09
-2.55770520443e-06
-5.05302463674e-09
-2.5457773743e-06
-1.18723314947e-08
-2.52993137474e-06
-1.57926693152e-08
-2.50950211e-06
-2.03748031791e-08
-2.48384014888e-06
-2.56091198451e-08
-2.45174695388e-06
-3.20389711004e-08
-2.41304634832e-06
-3.86478128391e-08
-2.37098162387e-06
-4.20102493278e-08
-2.32926873652e-06
-4.16603258948e-08
-2.28239587783e-06
-4.68179683783e-08
-2.2184060833e-06
-6.39341428663e-08
-2.13995880275e-06
-7.83876941641e-08
-2.04760657073e-06
-9.22920941881e-08
-1.93726045371e-06
-1.10283573233e-07
-1.82172108349e-06
-1.15476657622e-07
-1.70437691951e-06
-1.17277159413e-07
-1.57024323254e-06
-1.34062762289e-07
-1.41801161527e-06
-1.52154989751e-07
-1.25563815687e-06
-1.62287862904e-07
-1.06267466448e-06
-1.92849710524e-07
-7.90195535756e-07
-2.72317288078e-07
-4.97516784351e-07
-2.925087439e-07
-2.85929276958e-07
-2.11472956804e-07
-1.45447563232e-07
-1.40399023456e-07
-3.5283631919e-08
-1.10091953398e-07
6.32658495597e-08
-9.84787043538e-08
1.52538492498e-07
-8.918706821e-08
2.29351526105e-07
-7.67217475644e-08
2.86123407798e-07
-5.66723461081e-08
3.17028473273e-07
-3.08092729964e-08
3.2152213476e-07
-4.39775095109e-09
2.98955470793e-07
2.26645929209e-08
2.63600390476e-07
3.54478363621e-08
2.21022597432e-07
4.26636956374e-08
1.85050380334e-07
3.60534710587e-08
1.34894901623e-07
5.02363946004e-08
8.35006964999e-08
5.15605352172e-08
8.3592829562e-08
-1.31406416537e-07
3.81547813473e-07
-3.0424869372e-07
3.94114547447e-07
-4.68761247021e-07
3.52424233401e-07
-6.35010601752e-07
3.21314904937e-07
-8.35270869891e-07
3.14361331013e-07
-9.83638524387e-07
2.21101929366e-07
-1.06827704906e-06
1.3664359854e-07
-1.14794764473e-06
1.54733954738e-07
-1.23519183722e-06
1.86540608129e-07
-1.3281164201e-06
1.85385646384e-07
-1.4154676475e-06
1.71209621592e-07
-1.48811296572e-06
1.57141045964e-07
-1.55244180149e-06
1.38640462575e-07
-1.6121720395e-06
1.19968582911e-07
-1.66881546223e-06
1.10775402604e-07
-1.73085286277e-06
1.22679712323e-07
-1.78830125314e-06
1.19369297306e-07
-1.82146236092e-06
8.46614387523e-08
-1.8500515253e-06
6.85438190371e-08
-1.89405409754e-06
8.09491920784e-08
-1.95365779138e-06
1.08304719614e-07
-2.02481926856e-06
1.31781088075e-07
-2.09183341596e-06
1.28432883021e-07
-2.1451491633e-06
1.10176005364e-07
-2.19319337448e-06
9.89615219465e-08
-2.24129183241e-06
9.34140248987e-08
-2.28346940236e-06
8.38716109107e-08
-2.31912280584e-06
7.28258725921e-08
-2.35059918312e-06
6.32646997533e-08
-2.37858461626e-06
5.55376900482e-08
-2.40277127782e-06
5.00750883411e-08
-2.42373386051e-06
4.42727878375e-08
-2.44071549973e-06
3.61592740437e-08
-2.45790924814e-06
3.58596507028e-08
-2.47897463929e-06
3.95739187691e-08
-2.49691743122e-06
3.51290901323e-08
-2.5127492791e-06
3.29889893412e-08
-2.53106688051e-06
3.37484854933e-08
-2.54920012855e-06
2.95133451568e-08
-2.5597375916e-06
1.82874544754e-08
-2.54996946195e-06
-2.21710327084e-09
-2.52819972454e-06
-1.74398255566e-08
-2.51393061008e-06
-1.92618856951e-08
-2.50526811185e-06
-2.04805602297e-08
-2.49517976879e-06
-2.58227775557e-08
-2.48205709602e-06
-3.3444123552e-08
-2.46381503381e-06
-4.37932590173e-08
-2.44026891889e-06
-5.55315404942e-08
-2.41026823469e-06
-6.85904173382e-08
-2.36808894427e-06
-8.41355685391e-08
-2.30934600915e-06
-1.00344923734e-07
-2.24511750795e-06
-1.10991787875e-07
-2.19392748155e-06
-1.15064112227e-07
-2.13379596202e-06
-1.38460031803e-07
-2.04957869149e-06
-1.7644639346e-07
-1.95901254532e-06
-2.00788303785e-07
-1.85805771123e-06
-2.16364842575e-07
-1.73797248696e-06
-2.372948449e-07
-1.60476396985e-06
-2.67197306443e-07
-1.45160217399e-06
-3.05238960332e-07
-1.2560288883e-06
-3.57763326966e-07
-1.03257984397e-06
-4.16176570899e-07
-7.68664660249e-07
-5.36072997952e-07
-4.98553392212e-07
-5.62471499143e-07
-2.84607693673e-07
-4.25304268427e-07
-1.31390390067e-07
-2.93537614634e-07
-1.66435846273e-08
-2.24770459999e-07
8.25928445343e-08
-1.97638090347e-07
1.71791971304e-07
-1.78308618937e-07
2.47023816252e-07
-1.51858822852e-07
2.98220590526e-07
-1.07777288418e-07
3.2120132921e-07
-5.36995175294e-08
3.26426044585e-07
-9.53072283115e-09
3.22001079453e-07
2.7186114916e-08
2.99947783357e-07
5.7599118466e-08
2.67032523347e-07
7.56724572829e-08
2.19972589225e-07
8.32157087684e-08
1.67930833697e-07
1.02396968228e-07
9.05171381527e-08
1.29093603831e-07
1.74254402358e-07
-1.68147473559e-07
5.50078506764e-07
-2.5681407352e-07
4.83171130221e-07
-4.52454559387e-07
5.48441328132e-07
-6.72846317567e-07
5.42065558931e-07
-8.72633394508e-07
5.144724459e-07
-9.77759386673e-07
3.26495473088e-07
-1.03092064203e-06
1.90072423886e-07
-1.11912031644e-06
2.43214956975e-07
-1.22108875579e-06
2.88765456698e-07
-1.31980551352e-06
2.84328359822e-07
-1.41048710153e-06
2.62086124951e-07
-1.48686781662e-06
2.33702502718e-07
-1.55180460363e-06
2.03749490419e-07
-1.61309970255e-06
1.81430342023e-07
-1.66096141202e-06
1.58793180442e-07
-1.6553787034e-06
1.17236139957e-07
-1.61953258391e-06
8.36358689871e-08
-1.6301882985e-06
9.54182877091e-08
-1.70457277851e-06
1.43024917872e-07
-1.83066515255e-06
2.07141696712e-07
-1.95436661917e-06
2.32107518106e-07
-2.03103600681e-06
2.08550338289e-07
-2.08644290858e-06
1.83931975615e-07
-2.14420037077e-06
1.68022486554e-07
-2.19778299258e-06
1.52627167944e-07
-2.2422089725e-06
1.37921162565e-07
-2.28144662422e-06
1.23185761781e-07
-2.31716078007e-06
1.08616241811e-07
-2.34863779218e-06
9.48143437242e-08
-2.37671818343e-06
8.36912185861e-08
-2.39945242934e-06
7.28794706208e-08
-2.41923456347e-06
6.41248077014e-08
-2.43892232864e-06
5.59159596522e-08
-2.45006085108e-06
4.70676197251e-08
-2.46495230285e-06
5.45308544002e-08
-2.49186275823e-06
6.21060647667e-08
-2.51060718806e-06
5.17973772148e-08
-2.52482730032e-06
4.80324522388e-08
-2.54480145929e-06
4.95494423696e-08
-2.56043415619e-06
3.39842879608e-08
-2.56809724102e-06
5.50791269173e-09
-2.56865237484e-06
-1.68227457713e-08
-2.56141906324e-06
-2.64365122412e-08
-2.54913181207e-06
-3.27084480101e-08
-2.53308609811e-06
-4.18112625153e-08
-2.51253349978e-06
-5.39381791113e-08
-2.48753402617e-06
-6.87359207856e-08
-2.45752894844e-06
-8.54783894693e-08
-2.42189827472e-06
-1.0416429352e-07
-2.38103187616e-06
-1.24943171362e-07
-2.33536936208e-06
-1.45949578733e-07
-2.28137487774e-06
-1.64926024439e-07
-2.20993302012e-06
-1.86445397527e-07
-2.12826537711e-06
-2.20065068706e-07
-2.04810809513e-06
-2.56541047373e-07
-1.96014328898e-06
-2.88689132221e-07
-1.8536015004e-06
-3.22840910051e-07
-1.72814640705e-06
-3.62680877876e-07
-1.58448939623e-06
-4.10780919478e-07
-1.41872871941e-06
-4.70914977116e-07
-1.2291808991e-06
-5.47212675459e-07
-9.89222164079e-07
-6.56013100686e-07
-7.21101202351e-07
-8.0405345023e-07
-4.62232826775e-07
-8.21213219539e-07
-2.4980609894e-07
-6.37640702105e-07
-1.03371307705e-07
-4.39899773052e-07
1.6827031845e-08
-3.44895645056e-07
1.15783734834e-07
-2.96534822035e-07
1.97794987343e-07
-2.60236836908e-07
2.64677049885e-07
-2.18669187076e-07
3.17021406065e-07
-1.60038342412e-07
3.57396035441e-07
-9.39908054451e-08
3.77320123077e-07
-2.9366200613e-08
3.6540498184e-07
3.9193651926e-08
3.2639776416e-07
9.66981710973e-08
2.74888248329e-07
1.27278399545e-07
2.22301492931e-07
1.35887492357e-07
1.72897165945e-07
1.51885974761e-07
7.75295174981e-08
2.24660182893e-07
2.51808668013e-07
-1.21376386808e-07
6.71788655825e-07
-1.65866759148e-07
5.27921747349e-07
-3.86403420793e-07
7.6932509598e-07
-5.67263755904e-07
7.23268058038e-07
-5.86590199442e-07
5.3405296306e-07
-5.28641445226e-07
2.68680659186e-07
-7.19006121377e-07
3.80613477318e-07
-1.00066833755e-06
5.251266833e-07
-1.17847211929e-06
4.66813412226e-07
-1.29859052439e-06
4.04663443405e-07
-1.40105554918e-06
3.64749638001e-07
-1.48712226271e-06
3.19954864714e-07
-1.54751732239e-06
2.64319484386e-07
-1.55113544168e-06
1.85209066443e-07
-1.50983320579e-06
1.17631043477e-07
-1.49663709289e-06
1.04158331385e-07
-1.55322487678e-06
1.40330093605e-07
-1.67321701858e-06
2.15513211653e-07
-1.81418496917e-06
2.84099274614e-07
-1.91136314823e-06
3.04426707241e-07
-1.9700994129e-06
2.90947691486e-07
-2.0312243136e-06
2.69773338066e-07
-2.09277414201e-06
2.45575633679e-07
-2.14665676636e-06
2.21992874441e-07
-2.19468642051e-06
2.00741076083e-07
-2.23789406262e-06
1.81208311632e-07
-2.27805372195e-06
1.63423259374e-07
-2.31412235214e-06
1.44759208285e-07
-2.34628619183e-06
1.27052084845e-07
-2.37259857759e-06
1.10075468008e-07
-2.3969323035e-06
9.72844875402e-08
-2.41411284494e-06
8.13751515824e-08
-2.42533806812e-06
6.72094646045e-08
-2.45019200131e-06
7.19884583528e-08
-2.47207598162e-06
7.64820058648e-08
-2.49108829852e-06
8.11831469882e-08
-2.52358008281e-06
8.43540454616e-08
-2.55011816433e-06
7.46344191272e-08
-2.56047784238e-06
5.99736446152e-08
-2.56471084854e-06
3.82802340478e-08
-2.5689018638e-06
9.7617414618e-09
-2.57029819596e-06
-1.53655159042e-08
-2.56496692382e-06
-3.17067867414e-08
-2.55341537351e-06
-4.42003386065e-08
-2.53708359433e-06
-5.80828123453e-08
-2.5162125145e-06
-7.47500407588e-08
-2.49078261925e-06
-9.41059769393e-08
-2.46042836203e-06
-1.15773777495e-07
-2.42479777515e-06
-1.39735022109e-07
-2.38377579063e-06
-1.65905636496e-07
-2.3362833193e-06
-1.933803481e-07
-2.2791081386e-06
-2.22038750083e-07
-2.2102034406e-06
-2.55285701844e-07
-2.13414410639e-06
-2.9605967604e-07
-2.0508470933e-06
-3.3977372898e-07
-1.95453139286e-06
-3.84939244705e-07
-1.84120474428e-06
-4.36100590535e-07
-1.7076405141e-06
-4.9617431192e-07
-1.55010866952e-06
-5.68234847065e-07
-1.36367917145e-06
-6.57256450711e-07
-1.1421205622e-06
-7.68668392918e-07
-8.9419325277e-07
-9.0382727043e-07
-6.81129933359e-07
-1.01700991945e-06
-4.67864697706e-07
-1.03438327296e-06
-2.34567667462e-07
-8.70849715642e-07
-6.44203411914e-08
-6.09970873506e-07
6.05388511158e-08
-4.69801877427e-07
1.63633824387e-07
-3.99554388027e-07
2.50525385277e-07
-3.47082072058e-07
3.27797298236e-07
-2.95863800886e-07
3.94099283326e-07
-2.2627059115e-07
4.27971935549e-07
-1.27785727294e-07
4.10852976129e-07
-1.21724268152e-08
3.65021101604e-07
8.50965666703e-08
3.12427654142e-07
1.49366131103e-07
2.46703906208e-07
1.93076325753e-07
1.74336893395e-07
2.08331890523e-07
1.18706979293e-07
2.07601408051e-07
6.14265408313e-08
2.81964828276e-07
3.1331756455e-07
-2.77803444573e-08
6.99750853803e-07
-1.4736504784e-07
6.47712116335e-07
-3.26637989803e-07
9.48886493185e-07
-4.62615367249e-07
8.59511836771e-07
-4.47654106612e-07
5.19270574462e-07
-5.54578364409e-07
3.75739408756e-07
-7.89749403514e-07
6.15978772492e-07
-9.69418534054e-07
7.05025108845e-07
-1.12031399589e-06
6.17932689128e-07
-1.25469106705e-06
5.39250377045e-07
-1.37500792825e-06
4.85266477875e-07
-1.44252144342e-06
3.87645895225e-07
-1.42791821825e-06
2.49871555604e-07
-1.40600813416e-06
1.63432898596e-07
-1.44882769298e-06
1.60571731918e-07
-1.54913200998e-06
2.0457940663e-07
-1.68110721121e-06
2.72420831378e-07
-1.79474861226e-06
3.29269683156e-07
-1.86017955065e-06
3.49642308611e-07
-1.90803356901e-06
3.52388944147e-07
-1.96824372475e-06
3.51261723937e-07
-2.03200604773e-06
3.33634812073e-07
-2.09095490622e-06
3.04617566287e-07
-2.14341014104e-06
2.74536415081e-07
-2.19036320371e-06
2.47777546989e-07
-2.23435589682e-06
2.25281393924e-07
-2.27310946464e-06
2.02252838654e-07
-2.30981596287e-06
1.81540603819e-07
-2.34010306926e-06
1.57412836387e-07
-2.36621752391e-06
1.36262757977e-07
-2.38289831928e-06
1.14035677254e-07
-2.40433219696e-06
1.02877139509e-07
-2.43713037394e-06
1.00074709498e-07
-2.45704278478e-06
9.19675865242e-08
-2.482851474e-06
1.02356274613e-07
-2.51589731217e-06
1.14294939405e-07
-2.53943733075e-06
1.07959445716e-07
-2.55543176531e-06
9.06941669649e-08
-2.56448763313e-06
6.9093688181e-08
-2.56938149043e-06
4.32379335601e-08
-2.57319194536e-06
1.36349288532e-08
-2.57434284102e-06
-1.41521263681e-08
-2.5697036281e-06
-3.62843054039e-08
-2.55878054211e-06
-5.50614494128e-08
-2.54251719693e-06
-7.42845392264e-08
-2.52145262906e-06
-9.57526318243e-08
-2.49566779574e-06
-1.1982933698e-07
-2.46491739902e-06
-1.46462252456e-07
-2.42884977251e-06
-1.75740806082e-07
-2.38694326257e-06
-2.07748419388e-07
-2.33784377849e-06
-2.42415153182e-07
-2.27940308422e-06
-2.80412144512e-07
-2.21091265741e-06
-3.23707993761e-07
-2.13379504274e-06
-3.7310951287e-07
-2.04632157276e-06
-4.27178275163e-07
-1.94366216523e-06
-4.87530215723e-07
-1.82102331054e-06
-5.58667241137e-07
-1.67309270826e-06
-6.44028101098e-07
-1.49450451124e-06
-7.46739253266e-07
-1.28267248668e-06
-8.68996010173e-07
-1.04519285886e-06
-1.00605149378e-06
-8.15644169376e-07
-1.13328534395e-06
-6.32483167307e-07
-1.20008563133e-06
-4.21745408212e-07
-1.24503205205e-06
-2.12201490778e-07
-1.08031174634e-06
-3.34731132462e-08
-7.88644003043e-07
1.11307313449e-07
-6.1450784427e-07
2.26718703043e-07
-5.149405711e-07
3.21928780257e-07
-4.42220880782e-07
4.1005262597e-07
-3.83947337389e-07
4.74851649105e-07
-2.9100506227e-07
4.74847887567e-07
-1.27726575934e-07
4.32434637036e-07
3.02910756715e-08
3.78482352905e-07
1.39100266983e-07
3.09774746238e-07
2.1813174114e-07
2.29050471726e-07
2.73866827314e-07
1.66186537375e-07
2.71240864962e-07
1.07787571838e-07
2.66026650575e-07
4.67289263217e-08
3.43155848285e-07
3.6004430423e-07
-1.50238471893e-08
7.1492478234e-07
-1.77332640625e-07
8.10201004131e-07
-2.80521498967e-07
1.05231269698e-06
-3.48681601988e-07
9.27877838521e-07
-3.48968987759e-07
5.19680891742e-07
-5.98664815939e-07
6.25592874464e-07
-8.3001679297e-07
8.4753921515e-07
-9.44925042883e-07
8.20142870241e-07
-1.07329048652e-06
7.46502835066e-07
-1.19340486143e-06
6.59573265372e-07
-1.25872255527e-06
5.50770886051e-07
-1.2234042986e-06
3.52474298004e-07
-1.22136365542e-06
2.47952196466e-07
-1.30085582401e-06
2.43039036063e-07
-1.42902257034e-06
2.88854798654e-07
-1.5893570405e-06
3.650354118e-07
-1.72346030895e-06
4.06646900932e-07
-1.79357517377e-06
3.99503510571e-07
-1.84042101831e-06
3.96601804708e-07
-1.90517955288e-06
4.17257400201e-07
-1.97112184136e-06
4.17309099172e-07
-2.02985848479e-06
3.92470376617e-07
-2.08570730768e-06
3.60559654217e-07
-2.13961096363e-06
3.28527562179e-07
-2.18782563233e-06
2.96075586133e-07
-2.22439679906e-06
2.61931498242e-07
-2.26406260798e-06
2.41995422417e-07
-2.29892782975e-06
2.16480471043e-07
-2.3299422097e-06
1.88500142611e-07
-2.34618474662e-06
1.52576242681e-07
-2.36451184237e-06
1.32431901714e-07
-2.38955702132e-06
1.27989378459e-07
-2.41428342765e-06
1.24866341466e-07
-2.46200968658e-06
1.39759393951e-07
-2.50453096805e-06
1.44944041616e-07
-2.53084565089e-06
1.40676222011e-07
-2.54825521803e-06
1.25435363002e-07
-2.56095348196e-06
1.03458075892e-07
-2.56963527008e-06
7.78405933551e-08
-2.57529889937e-06
4.89657947203e-08
-2.57908850644e-06
1.74882812712e-08
-2.57990735393e-06
-1.32699296885e-08
-2.57551353413e-06
-4.06145195256e-08
-2.56507679491e-06
-6.54344197345e-08
-2.54903689117e-06
-9.02602622021e-08
-2.5278888685e-06
-1.16836486852e-07
-2.50177405918e-06
-1.45879540881e-07
-2.47048811943e-06
-1.77683274705e-07
-2.43361044835e-06
-2.12551945663e-07
-2.39044534695e-06
-2.50845827347e-07
-2.33976842444e-06
-2.93020958388e-07
-2.28013283035e-06
-3.39975835085e-07
-2.21081318123e-06
-3.92955003097e-07
-2.13115632633e-06
-4.52693504576e-07
-2.03803937382e-06
-5.20225056719e-07
-1.92621332514e-06
-5.99282517476e-07
-1.7899280697e-06
-6.94876331514e-07
-1.62354827169e-06
-8.10326585694e-07
-1.42422682017e-06
-9.45974083781e-07
-1.19761677601e-06
-1.09551710204e-06
-9.63346051542e-07
-1.24023663202e-06
-7.49155579506e-07
-1.34739806927e-06
-5.59272837675e-07
-1.38989906771e-06
-3.60025255516e-07
-1.44421673763e-06
-1.56842976158e-07
-1.28343883669e-06
9.68365862141e-09
-9.550994837e-07
1.66695085896e-07
-7.71501773142e-07
3.04591411681e-07
-6.527615515e-07
4.23172481041e-07
-5.60790728997e-07
5.20371322662e-07
-4.81089497754e-07
5.53652502055e-07
-3.24249888376e-07
5.24786984611e-07
-9.88223539053e-08
4.76507044979e-07
7.8606890652e-08
4.07256109708e-07
2.08391494611e-07
3.18100962916e-07
3.07334610066e-07
2.3306911103e-07
3.58940517409e-07
1.60059380118e-07
3.44298475769e-07
9.78799048595e-08
3.28281860147e-07
4.56626589314e-08
3.95361928021e-07
4.05774105378e-07
-6.96154338473e-08
7.84661880031e-07
-2.54173279215e-07
9.94932766894e-07
-3.45298372503e-07
1.14364077796e-06
-3.13863718717e-07
8.9661524574e-07
-4.17753812862e-07
6.23703218535e-07
-6.83681090127e-07
8.9170343763e-07
-8.14957312184e-07
9.79014671934e-07
-9.16090846328e-07
9.21469415212e-07
-1.01091431711e-06
8.41525664371e-07
-1.13367082845e-06
7.82513706211e-07
-1.13484299121e-06
5.52102884246e-07
-1.11947048004e-06
3.37219915842e-07
-1.19973957231e-06
3.28333285982e-07
-1.3118183121e-06
3.55228894976e-07
-1.47163435741e-06
4.4879233673e-07
-1.62133188001e-06
5.14862230896e-07
-1.70031012814e-06
4.85749819319e-07
-1.75185303518e-06
4.51163605495e-07
-1.8290814639e-06
4.73944864368e-07
-1.90438254948e-06
4.92669857227e-07
-1.96696117214e-06
4.799929092e-07
-2.02600154382e-06
4.51610105536e-07
-2.08306581887e-06
4.1771621448e-07
-2.13220081996e-06
3.77749731547e-07
-2.17299519673e-06
3.36953127907e-07
-2.21253000458e-06
3.01544595718e-07
-2.24363886599e-06
2.73180396151e-07
-2.27920292561e-06
2.521175572e-07
-2.30441413759e-06
2.13782755215e-07
-2.32263396555e-06
1.70865074578e-07
-2.3518973883e-06
1.61763032202e-07
-2.38626015634e-06
1.62417899859e-07
-2.43203093325e-06
1.70702219898e-07
-2.47554539695e-06
1.83340011363e-07
-2.51588947832e-06
1.8535549377e-07
-2.54021277048e-06
1.65066919599e-07
-2.5555612423e-06
1.40850590918e-07
-2.56731279723e-06
1.15275857621e-07
-2.57632612766e-06
8.69195119366e-08
-2.58264454229e-06
5.53494380472e-08
-2.58650439992e-06
2.14131196639e-08
-2.58707086872e-06
-1.2638231616e-08
-2.58273017146e-06
-4.4889637339e-08
-2.57260421354e-06
-7.54941486005e-08
-2.55677356236e-06
-1.06024305873e-07
-2.53555384522e-06
-1.37988811371e-07
-2.50903271741e-06
-1.72332529151e-07
-2.47699062167e-06
-2.09655448014e-07
-2.43898075036e-06
-2.50490430452e-07
-2.39430916172e-06
-2.95442010406e-07
-2.34195212905e-06
-3.45302343004e-07
-2.28069382624e-06
-4.01156061851e-07
-2.20924364257e-06
-4.64328632875e-07
-2.12536521248e-06
-5.36498922415e-07
-2.02470677121e-06
-6.20808647426e-07
-1.90142143235e-06
-7.2249193257e-07
-1.74980479858e-06
-8.46412043487e-07
-1.56667334767e-06
-9.93375459048e-07
-1.35573525183e-06
-1.15683011151e-06
-1.13003440301e-06
-1.32113984512e-06
-9.11422499761e-07
-1.45877776665e-06
-7.13802012132e-07
-1.544960262e-06
-5.11040245987e-07
-1.59261364483e-06
-3.44969786418e-07
-1.61023934026e-06
-1.14678317214e-07
-1.51367064516e-06
8.04010274922e-08
-1.1501628114e-06
2.54812650556e-07
-9.45838302527e-07
4.19714255836e-07
-8.17664770552e-07
5.54779891956e-07
-6.95794547822e-07
6.30896705427e-07
-5.57187648436e-07
6.35192853743e-07
-3.28510422895e-07
6.08389313965e-07
-7.19903798682e-08
5.50345546728e-07
1.36683105993e-07
4.52581265871e-07
3.06193692608e-07
3.36261046288e-07
4.23696172156e-07
2.42577408509e-07
4.52674487512e-07
1.53060694468e-07
4.33856173142e-07
8.195647063e-08
3.99398097776e-07
4.13007124647e-08
4.36144979753e-07
4.47065048734e-07
-1.21783910883e-07
9.06596723507e-07
-2.78984640683e-07
1.1523082776e-06
-3.27354000249e-07
1.19217674269e-06
-2.50732780525e-07
8.20109963819e-07
-4.61626184925e-07
8.34737745263e-07
-6.766095805e-07
1.10687553397e-06
-7.81950213406e-07
1.08454003104e-06
-8.90477669614e-07
1.03018458189e-06
-9.33278258138e-07
8.84499566706e-07
-9.82918111021e-07
8.32321173264e-07
-9.7307649243e-07
5.42376110888e-07
-1.08431803614e-06
4.48570213828e-07
-1.18975985103e-06
4.33880941233e-07
-1.3400933117e-06
5.05678506964e-07
-1.50191884854e-06
6.10749013673e-07
-1.59220358572e-06
6.05276767258e-07
-1.64670937501e-06
5.40376137611e-07
-1.73426621271e-06
5.38838078406e-07
-1.82561244059e-06
5.65407748337e-07
-1.89601263145e-06
5.63182197397e-07
-1.9560967524e-06
5.40182714296e-07
-2.01380838499e-06
5.0941921622e-07
-2.07375333299e-06
4.7775321427e-07
-2.13056975455e-06
4.34654054779e-07
-2.16749308153e-06
3.73956861317e-07
-2.20949613504e-06
3.43626113443e-07
-2.24302035995e-06
3.06779601473e-07
-2.2572591395e-06
2.66428810746e-07
-2.28164478341e-06
2.38237065935e-07
-2.33699658647e-06
2.26284471467e-07
-2.37659806928e-06
2.01431347747e-07
-2.39815128877e-06
1.84036172009e-07
-2.44414540639e-06
2.16762153386e-07
-2.4950664911e-06
2.34328396431e-07
-2.52514561374e-06
2.15502357153e-07
-2.54640928173e-06
1.86398161665e-07
-2.56245499559e-06
1.56963507898e-07
-2.57486161356e-06
1.27749264378e-07
-2.58446429535e-06
9.65887193371e-08
-2.59136118659e-06
6.23127114899e-08
-2.59538313588e-06
2.55016248861e-08
-2.59581692938e-06
-1.21374198252e-08
-2.59149571837e-06
-4.91430196615e-08
-2.58158416002e-06
-8.53371373698e-08
-2.56589933369e-06
-1.21639359064e-07
-2.54453529417e-06
-1.59281862744e-07
-2.51745966535e-06
-1.99334916745e-07
-2.4844112475e-06
-2.42628373785e-07
-2.44495896506e-06
-2.89862781025e-07
-2.39849507998e-06
-3.4182513431e-07
-2.34412326948e-06
-3.9958949441e-07
-2.28055107752e-06
-4.64646580047e-07
-2.20575063424e-06
-5.39050365088e-07
-2.11624668293e-06
-6.25928567548e-07
-2.00685734727e-06
-7.3012153902e-07
-1.87193981353e-06
-8.57330570319e-07
-1.70768250183e-06
-1.01059196185e-06
-1.51457644967e-06
-1.18640117215e-06
-1.30037377807e-06
-1.37095997432e-06
-1.07908013857e-06
-1.54236748151e-06
-8.66342965031e-07
-1.67145920232e-06
-6.65350372595e-07
-1.74590938901e-06
-4.81625432066e-07
-1.77630428218e-06
-3.31659919472e-07
-1.76017000069e-06
-1.27689737499e-07
-1.71762907246e-06
1.54752175166e-07
-1.43254566404e-06
3.60768025716e-07
-1.15185678573e-06
5.35386429387e-07
-9.92209291239e-07
6.67146998021e-07
-8.27541341022e-07
7.31346999318e-07
-6.21350693936e-07
7.49905525579e-07
-3.47047485708e-07
7.38270121433e-07
-6.03272761911e-08
6.57180236997e-07
2.17805007354e-07
5.14451040467e-07
4.48962429315e-07
3.62801842345e-07
5.75388906318e-07
2.36996179031e-07
5.78523915082e-07
1.34159280182e-07
5.36744433929e-07
5.40049735141e-08
4.7964040633e-07
2.08754092876e-08
4.69250517772e-07
4.68003524441e-07
-1.53630462451e-07
1.06036357371e-06
-2.72195326891e-07
1.27104207227e-06
-2.75427207944e-07
1.19555605069e-06
-3.06577903238e-07
8.5137803418e-07
-5.34098302172e-07
1.06241032591e-06
-6.39162655508e-07
1.21211610915e-06
-7.38466194783e-07
1.18402000474e-06
-8.44250575619e-07
1.13613344345e-06
-8.95060912319e-07
9.35462775256e-07
-9.46997281619e-07
8.84404901147e-07
-9.8186651468e-07
5.77350521497e-07
-1.08266184949e-06
5.49465273764e-07
-1.20620953268e-06
5.57537019044e-07
-1.3704609517e-06
6.70053164071e-07
-1.50716058268e-06
7.47580418326e-07
-1.5743830099e-06
6.72627482526e-07
-1.63712961989e-06
6.03242628417e-07
-1.72654583869e-06
6.28373153577e-07
-1.81205665735e-06
6.51035808082e-07
-1.8848692636e-06
6.3610632026e-07
-1.94786773678e-06
6.03284511752e-07
-2.00074851841e-06
5.62397202781e-07
-2.04775498514e-06
5.24853205619e-07
-2.09727054492e-06
4.84253422989e-07
-2.14172516325e-06
4.18491821996e-07
-2.17350089045e-06
3.75479372283e-07
-2.21703826767e-06
3.50388993356e-07
-2.26318346827e-06
3.12645773478e-07
-2.30223039934e-06
2.77352288458e-07
-2.33515532495e-06
2.59275381918e-07
-2.37492827388e-06
2.41268389531e-07
-2.43802226337e-06
2.47195747713e-07
-2.47806025706e-06
2.5686686341e-07
-2.50643449247e-06
2.62770189285e-07
-2.53176953966e-06
2.40905424851e-07
-2.55312439315e-06
2.0782093068e-07
-2.57027852307e-06
1.74185234309e-07
-2.58362399394e-06
1.41162159641e-07
-2.59386785217e-06
1.06900010821e-07
-2.60130883815e-06
6.98214217781e-08
-2.60565777631e-06
2.99188402942e-08
-2.60617168562e-06
-1.15543590496e-08
-2.60192638487e-06
-5.33182482607e-08
-2.59219260002e-06
-9.49992815578e-08
-2.5766011129e-06
-1.37157540739e-07
-2.55498964233e-06
-1.80817104127e-07
-2.52717620054e-06
-2.27068845172e-07
-2.49285864756e-06
-2.76861675885e-07
-2.45164337936e-06
-3.30991326453e-07
-2.40301665953e-06
-3.90360612678e-07
-2.34615886377e-06
-4.56359716127e-07
-2.27957570598e-06
-5.3114467471e-07
-2.20058610886e-06
-6.17965919333e-07
-2.10491722684e-06
-7.21521996004e-07
-1.98730687815e-06
-8.47658928222e-07
-1.8434285382e-06
-1.00113509535e-06
-1.67179139225e-06
-1.1821470041e-06
-1.47321295533e-06
-1.38491317792e-06
-1.25638915083e-06
-1.58772184875e-06
-1.03606468154e-06
-1.76263996571e-06
-8.24913222081e-07
-1.88257054694e-06
-6.21857249611e-07
-1.94893802068e-06
-4.31169483708e-07
-1.96697589114e-06
-2.58116662948e-07
-1.93322068194e-06
-1.15897215563e-07
-1.85982004637e-06
1.59075906388e-07
-1.70752932247e-06
4.80370919654e-07
-1.4730737015e-06
6.6316090328e-07
-1.17497896723e-06
7.87249516721e-07
-9.51576492227e-07
8.58586193661e-07
-6.92660237945e-07
9.19803234053e-07
-4.08236690276e-07
9.32425396468e-07
-7.29199695287e-08
8.10757051513e-07
3.3951291365e-07
5.91183468712e-07
6.68577319555e-07
3.72388171628e-07
7.94236528074e-07
1.94583714722e-07
7.5639084762e-07
7.84561690752e-08
6.52928515861e-07
7.63225051514e-09
5.50474873887e-07
-1.15573352314e-08
4.88561766734e-07
4.56429991193e-07
-1.72250277668e-07
1.23277588498e-06
-2.84745543029e-07
1.38369997906e-06
-2.55321838282e-07
1.16626680992e-06
-3.60808797504e-07
9.56989624895e-07
-5.53174843982e-07
1.25493861588e-06
-6.04257171926e-07
1.26335992681e-06
-6.88906159289e-07
1.26883396829e-06
-7.45693783763e-07
1.19306782957e-06
-8.31458010721e-07
1.02135690805e-06
-8.52312425648e-07
9.05374556761e-07
-9.51948121287e-07
6.77082408025e-07
-1.07429489912e-06
6.71912580698e-07
-1.20965978673e-06
6.93009171831e-07
-1.36070915278e-06
8.21229882703e-07
-1.45422971764e-06
8.41231237338e-07
-1.50950765207e-06
7.28023245483e-07
-1.6066966326e-06
7.00549558693e-07
-1.70625977845e-06
7.28056012309e-07
-1.7893156024e-06
7.34207938431e-07
-1.86622497996e-06
7.13125227146e-07
-1.93883475637e-06
6.75998025374e-07
-2.00180327544e-06
6.25464898046e-07
-2.04207780935e-06
5.65217052535e-07
-2.07466896612e-06
5.16928761465e-07
-2.13315401218e-06
4.77055456632e-07
-2.17282486358e-06
4.152242485e-07
-2.18832336858e-06
3.65961367523e-07
-2.21644637524e-06
3.4083798709e-07
-2.26553902418e-06
3.26511651172e-07
-2.3288499496e-06
3.22650767089e-07
-2.38820185947e-06
3.00683648297e-07
-2.43687084123e-06
2.95929019264e-07
-2.48702884892e-06
3.0709165463e-07
-2.5173682578e-06
2.93177590656e-07
-2.54039199502e-06
2.63997174746e-07
-2.56136480187e-06
2.28861584891e-07
-2.57940672965e-06
1.92295034081e-07
-2.59374428083e-06
1.55567799924e-07
-2.60464644996e-06
1.17870692725e-07
-2.61256191011e-06
7.78060344457e-08
-2.61731104449e-06
3.47379896058e-08
-2.61811860431e-06
-1.06757947101e-08
-2.61409935269e-06
-5.72647291314e-08
-2.60457054868e-06
-1.04453312383e-07
-2.58905701154e-06
-1.52592665877e-07
-2.56715671673e-06
-2.02635051607e-07
-2.53846709333e-06
-2.55670588473e-07
-2.50262010346e-06
-3.12616549629e-07
-2.45929317737e-06
-3.74221133647e-07
-2.40810293551e-06
-4.41456168955e-07
-2.3483050537e-06
-5.1606432283e-07
-2.2782929098e-06
-6.01076378827e-07
-2.19500869607e-06
-7.01178617822e-07
-2.09395638132e-06
-8.22503860805e-07
-1.97057524762e-06
-9.70960203357e-07
-1.82241357917e-06
-1.14921294646e-06
-1.64830729359e-06
-1.35619617102e-06
-1.44198854914e-06
-1.59114787044e-06
-1.21871105342e-06
-1.81093808317e-06
-1.00300575535e-06
-1.97830602535e-06
-8.01400022735e-07
-2.08415779634e-06
-5.84085647664e-07
-2.16626217992e-06
-3.52841000704e-07
-2.19824582149e-06
-1.3611593535e-07
-2.14996983396e-06
3.76403016496e-08
-2.03361778393e-06
2.30681677203e-07
-1.90053332229e-06
5.08752282836e-07
-1.75114880246e-06
7.66996497164e-07
-1.43315720901e-06
8.93662683811e-07
-1.07820141207e-06
1.00351781659e-06
-8.02488380697e-07
1.15077713723e-06