/*--------------------------------*- C++ -*----------------------------------*\
| =========                 |                                                 |
| \\      /  F ield         | OpenFOAM: The Open Source CFD Toolbox           |
|  \\    /   O peration     | Version:  v1806                                 |
|   \\  /    A nd           | Web:      www.OpenFOAM.com                      |
|    \\/     M anipulation  |                                                 |
\*---------------------------------------------------------------------------*/
FoamFile
{
    version     2.0;
    format      ascii;
    class       volScalarField;
    location    "505";
    object      p;
}
// * * * * * * * * * * * * * * * * * * * * * * * * * * * * * * * * * * * * * //

dimensions      [0 2 -2 0 0 0 0];


internalField   nonuniform List<scalar> 
6400
(
0.153575050136
0.153577595559
0.153584829165
0.153598873599
0.153619497931
0.15364657533
0.153680125155
0.153721177792
0.153770308909
0.15382846062
0.153901081296
0.153991038901
0.154095593467
0.154214746958
0.154350308285
0.154504532965
0.154678649628
0.154872405568
0.155084018159
0.155308599185
0.155540528527
0.155780604282
0.156035263704
0.156311544019
0.156614033292
0.156942617819
0.157293946301
0.157665543665
0.158057101275
0.158469292796
0.158902627784
0.159355369901
0.15982169226
0.160295713207
0.160774942998
0.161256235146
0.161739379302
0.16223089087
0.162729566765
0.163225697519
0.16372033052
0.164226923146
0.164752504033
0.16528906081
0.165826292565
0.166357479505
0.166877520731
0.167382782399
0.167870033111
0.16833653638
0.168780273341
0.169196683404
0.169578604335
0.16991683671
0.170210842869
0.1704674801
0.170684677572
0.170855216526
0.170979143216
0.171065413693
0.171121187154
0.171151891962
0.171163800461
0.1711622575
0.171146616496
0.171106463767
0.171039464149
0.170959550598
0.17088240175
0.170813425309
0.170751879877
0.170695006148
0.17064094313
0.170592322982
0.170548708972
0.170510936254
0.170479724661
0.170459377675
0.170446405372
0.170440955246
0.153571296145
0.153573987293
0.153580505017
0.153594231352
0.153616248778
0.15364467685
0.153678670284
0.153718170205
0.153765500741
0.153823533544
0.153895822639
0.153984707539
0.154089491513
0.154209535194
0.154345294788
0.15449822509
0.154671642992
0.154866060217
0.155079067348
0.15530443124
0.15553451796
0.155772417302
0.15602631581
0.156302369989
0.156605202361
0.15693454025
0.157286116373
0.157658259545
0.158050770196
0.158463726378
0.158897089432
0.15935023184
0.159817637053
0.160291774464
0.16077122475
0.161252825788
0.16173574929
0.162227756278
0.162727590902
0.163224251252
0.163717325227
0.164224017625
0.164753647129
0.165293260747
0.165832037722
0.166364904067
0.166886624809
0.167393906105
0.167883008789
0.168349733333
0.168792131789
0.169209787535
0.169597634888
0.169938051177
0.170233416923
0.170492992
0.170708183788
0.170874939886
0.170997546657
0.171082136411
0.171134832951
0.171164303804
0.171174964808
0.17117269526
0.171156593413
0.171116032445
0.171046296795
0.17096319694
0.170883395
0.170812110456
0.170748763284
0.170690268234
0.170634456452
0.170584024016
0.170540310754
0.170503410917
0.170474364169
0.170454613272
0.170442019059
0.170437818519
0.153560815015
0.153565297481
0.153571126202
0.15358371819
0.153605018661
0.153636833669
0.15367383152
0.153712152613
0.153757022623
0.153813660755
0.153885189103
0.153973471251
0.154078407015
0.15419910919
0.154334914486
0.154484575308
0.154655787662
0.154855262834
0.155071442603
0.155295621145
0.155521615728
0.155754000764
0.156006521056
0.156284809906
0.156588390181
0.156917388021
0.157270129811
0.157644075241
0.158038132993
0.158452389491
0.158886562532
0.15934073976
0.159810462435
0.160284225209
0.160762341476
0.161246043422
0.161729014258
0.162219826359
0.162720817878
0.163220573675
0.163720220646
0.164231790895
0.164760860446
0.165300132036
0.165840433179
0.166375561416
0.166900587085
0.167411539179
0.16790459182
0.168376187962
0.168823671003
0.169243752656
0.169629500138
0.169973353657
0.170276717679
0.170537624709
0.170749875792
0.170913904571
0.171033748627
0.171115053155
0.171164934813
0.171191052053
0.171198700314
0.171196121693
0.171178738874
0.171133781165
0.171060914121
0.170973478827
0.170886870292
0.170809290845
0.170740722144
0.170678201485
0.170621105846
0.170570896169
0.170527220617
0.170491144502
0.170464049247
0.170445489842
0.17043394856
0.170429817748
0.153546091737
0.153550635774
0.153555435024
0.153567000774
0.153585738124
0.153617406085
0.153664672612
0.153703023678
0.153744439663
0.153798641556
0.153868939927
0.153956842571
0.154062198122
0.154182689107
0.154318448427
0.154472747749
0.154648427694
0.154845400455
0.155053818194
0.15526681475
0.155488288767
0.155723956786
0.155978688489
0.156257319392
0.156561850157
0.156892219692
0.157246788462
0.157622877174
0.158019174825
0.158435186372
0.158871495765
0.159327268393
0.159798563804
0.16027607486
0.160751511195
0.161231750381
0.161718630762
0.162209598104
0.16270784965
0.163211434307
0.163719623141
0.164238001851
0.164769946987
0.165311119155
0.165854293833
0.166393283299
0.166923003631
0.167439174838
0.167937875982
0.168415457371
0.168868491623
0.169292785854
0.16968256084
0.170032591842
0.170340441429
0.170601923369
0.170813088838
0.17097471088
0.171091033511
0.171168181701
0.171213623662
0.171234985113
0.171239652288
0.171235992377
0.171216253518
0.171167290011
0.171085951987
0.170987760637
0.170889886197
0.170802567901
0.170727603444
0.170662403639
0.170604428968
0.170551527817
0.170505635716
0.170470916051
0.170446847757
0.17042867767
0.170416216045
0.170411126651
0.153523106773
0.153523878099
0.153529790051
0.153541649653
0.153562474941
0.153592287114
0.153635303899
0.15367766993
0.153721860993
0.153776643276
0.153846012711
0.153933758443
0.15404003648
0.154165752793
0.154308888057
0.154464192467
0.154633766684
0.154818368295
0.155016002083
0.155225964395
0.155448536797
0.155685266029
0.155941188017
0.156221151264
0.156527028472
0.156859126916
0.157215614426
0.157594405934
0.157993518621
0.1584125827
0.158850980713
0.159310630793
0.159786577562
0.160261361493
0.160735801745
0.16121438824
0.161698157057
0.162190879942
0.162692751303
0.163201977392
0.16371810533
0.164243791902
0.164780673747
0.1653258051
0.165873479788
0.166417867417
0.166953800836
0.167476798807
0.167982822589
0.168468053931
0.168928585445
0.169359854925
0.169756532496
0.170113554831
0.170426412366
0.170689978227
0.170901001898
0.171060727088
0.171173833189
0.17124699909
0.171288070193
0.171305005701
0.171305321573
0.171296162462
0.171267939693
0.171211310361
0.171120077799
0.171007846086
0.17089402101
0.170793259646
0.170710354006
0.170640752928
0.17057672837
0.17051785204
0.170471535569
0.170439206177
0.170415897821
0.170395329975
0.170382856581
0.170378675596
0.153480865562
0.153480692017
0.153490742165
0.153503016632
0.153526022243
0.153557855604
0.153597848699
0.153640958479
0.153689144885
0.153745895403
0.153813943251
0.153902297045
0.154016985055
0.154150764154
0.154293411895
0.154443154676
0.154603397884
0.154779234541
0.154972275458
0.155180166548
0.155400620422
0.155637099847
0.155894400019
0.15617624534
0.156484027402
0.15681752568
0.157176766544
0.157558375301
0.157961457538
0.158384118979
0.158827278608
0.15928927816
0.159764861724
0.16024405381
0.16071446727
0.161187533369
0.161671740959
0.16216819441
0.162675317763
0.163191277484
0.163715521479
0.164249191815
0.164792772189
0.165343885052
0.165897843678
0.166449268533
0.166993031177
0.167524550373
0.168039707924
0.168534553713
0.169004905456
0.169445974649
0.169852336964
0.170218270431
0.170537834514
0.170805420779
0.17101827678
0.171178046171
0.171289718682
0.17136024289
0.171397410962
0.171409211154
0.171402542041
0.171380742877
0.171340638526
0.171268601206
0.17116038127
0.17103015745
0.170896943123
0.170780000874
0.170686042929
0.170605296145
0.17052956561
0.170466772795
0.170422090778
0.170391813669
0.170367176716
0.170346590196
0.170335443352
0.17033082243
0.153416394507
0.15342119754
0.153438044207
0.153456311569
0.153476015354
0.153508130238
0.153550021606
0.153594808836
0.153646005615
0.153705146043
0.153776967624
0.153868552811
0.153990496241
0.15412387896
0.154262322282
0.154404424991
0.154558464347
0.154732050813
0.15492335408
0.155126200209
0.155343628721
0.155580397541
0.155838843861
0.156121942546
0.156431806289
0.156769272857
0.157129484219
0.157514716787
0.157922401584
0.158352458965
0.158799912807
0.159262211653
0.159738727493
0.160212524353
0.160681437584
0.161154095164
0.161640840197
0.162142128316
0.162655506944
0.163178947121
0.163711763599
0.164254241514
0.164806086582
0.165365087002
0.165927175657
0.16648738178
0.167040706947
0.167582587654
0.16810891087
0.168615678118
0.1690985478
0.169552479926
0.169971601234
0.170349290632
0.170678604482
0.170953711608
0.171172172076
0.171335714718
0.171448983745
0.171518166999
0.171550317489
0.171553185739
0.171533439961
0.171492755519
0.171439327208
0.17134650543
0.171210424982
0.171054579946
0.17089812038
0.170760167179
0.17064589783
0.170544962863
0.170457667908
0.170394511635
0.170353077568
0.170324955941
0.170300533336
0.170283011554
0.17027465467
0.170270180244
0.153340426619
0.15334996345
0.15336939713
0.15339593272
0.153417631187
0.153450919044
0.153491596304
0.153538668406
0.153593757105
0.153651009073
0.153730221135
0.153833301664
0.153953650345
0.154084051057
0.1542159632
0.154351109628
0.154504227294
0.154678491278
0.154864999219
0.15506286485
0.155277922687
0.155514540222
0.15577400913
0.156059537958
0.156372459144
0.156712626902
0.1570771299
0.157461883813
0.15787746101
0.15831754251
0.158766425189
0.1592253903
0.159699967059
0.160170585601
0.160637265111
0.161114104836
0.161605827163
0.162112738305
0.162632974701
0.163164576587
0.163706630223
0.164258865633
0.16482046068
0.165389166728
0.165961251077
0.166532071427
0.167096829783
0.167651098143
0.168190871653
0.168712194306
0.169210646378
0.16968092466
0.170116591876
0.170510192807
0.170854114767
0.171142407843
0.171372561502
0.171545433823
0.171663649225
0.171731133326
0.171753995035
0.17174037349
0.171697668532
0.171632500709
0.171555186787
0.171445665243
0.171276435843
0.171083453965
0.170893142309
0.170722217303
0.170575658822
0.170449868675
0.170354969659
0.170294828179
0.170260059834
0.170237470729
0.170219964017
0.17020781519
0.17020357065
0.170201332239
0.153257000312
0.153269444455
0.153289244405
0.153311756939
0.153339601022
0.153380477681
0.153421173959
0.153469579428
0.153531416851
0.153593400207
0.153670305822
0.153781337207
0.153904095613
0.154029248885
0.15415552779
0.154290166325
0.154442503392
0.154613861218
0.154795857835
0.154990832686
0.155204081812
0.15543953474
0.155698426753
0.155985272534
0.156305820754
0.156647253054
0.157016402367
0.157409463848
0.157826408971
0.158267320254
0.158722091455
0.159187300382
0.159649413821
0.160114461512
0.16058539679
0.161068279156
0.161566176917
0.162079559907
0.162607290453
0.163147742881
0.163699844556
0.164262897788
0.164835691544
0.165415864013
0.165999826213
0.166583182234
0.167161394163
0.167730280844
0.168286045781
0.168824874927
0.169342380907
0.16983309116
0.170290137173
0.170705503906
0.171071226974
0.171381125838
0.17163172241
0.171821023507
0.171946822309
0.172010110024
0.172017963368
0.171981071568
0.171908487688
0.171807237545
0.171685157467
0.171545562342
0.171355009752
0.171114475595
0.170874378252
0.17065321436
0.170461073138
0.170309178633
0.170210552531
0.170159129642
0.170138999744
0.170132489623
0.170129343254
0.170125005327
0.1701244153
0.170124764955
0.153164856663
0.153179259571
0.153202326047
0.153224055145
0.153253965088
0.153295289272
0.153337599494
0.153386046527
0.153447426202
0.153524072172
0.153605339838
0.153716293437
0.153839615408
0.153960861694
0.154081616882
0.154218576442
0.154373779187
0.154539987826
0.154716539924
0.154909018615
0.155121662191
0.155356959586
0.155615620019
0.155900687713
0.156227361925
0.156577321263
0.156942330841
0.157343106583
0.157765122508
0.158210763953
0.158668204674
0.159130530086
0.159590973096
0.160052144868
0.160526630202
0.161016259316
0.161521305699
0.162042061431
0.162578000298
0.163127997986
0.163691018764
0.164266043991
0.164851505853
0.165444879055
0.166042624802
0.166640541267
0.167234386175
0.167820320964
0.168394859313
0.168954444945
0.169494897269
0.170010844387
0.170495372018
0.170940417051
0.171337990509
0.171681247968
0.171963961072
0.172177944581
0.172312868502
0.172369629678
0.172359086807
0.172294333235
0.172183112453
0.172030991741
0.171845605138
0.171638928329
0.171414655283
0.171144826772
0.170829782104
0.170533096903
0.170282988757
0.170104342419
0.170006571518
0.169974929483
0.169986216669
0.170014065451
0.170032834138
0.170034957256
0.170035157528
0.170035401857
0.153060047618
0.153073804871
0.153098772401
0.153124977851
0.153162225467
0.153198481668
0.153241097785
0.153291479192
0.153345802422
0.15342983437
0.153523323291
0.153634620858
0.153757878291
0.153879008899
0.153998586196
0.15413564586
0.154291844062
0.154454660841
0.154627043117
0.154816145552
0.155027675214
0.155264307344
0.15552739651
0.155811917688
0.156132988176
0.156496275667
0.156869495581
0.157269531538
0.15769300743
0.158132245004
0.158597353396
0.159061879564
0.159519385346
0.159981851742
0.160461283613
0.160957855281
0.161470662393
0.161999670386
0.162544631701
0.163104894808
0.163679702769
0.164267889356
0.16486752665
0.16547585414
0.166089325635
0.166703929382
0.167315760073
0.167921375486
0.16851767205
0.169101492536
0.169669139241
0.170215804764
0.170735258814
0.171220220559
0.171663092868
0.172055229641
0.172384053733
0.172632383033
0.172781399529
0.172836051113
0.172808902192
0.17271212232
0.172550855629
0.172331537921
0.172066423703
0.171764309972
0.171442929779
0.171114114281
0.170748317551
0.170337429143
0.170011524979
0.169802039746
0.169713588951
0.16972364479
0.16979867367
0.16989118439
0.169940866151
0.169937037598
0.169932077813
0.169928280257
0.152939557753
0.15295032472
0.152969690279
0.153003386124
0.153050034805
0.153086170364
0.153129549879
0.153185066667
0.153237804086
0.153318287986
0.153421057866
0.153534986532
0.153657421388
0.153779874713
0.153905259113
0.154043985112
0.154198237761
0.15435764157
0.154527247604
0.154713063567
0.154920728962
0.15515485179
0.155426571075
0.155722364994
0.156037555478
0.156400393684
0.156782117962
0.157178875303
0.157612859858
0.15805758305
0.158513676492
0.158972773414
0.159431518103
0.159901964621
0.160388453162
0.16089241925
0.161413559063
0.161951685189
0.162506619707
0.163077967534
0.163665392455
0.164267908861
0.164883275983
0.165508353594
0.166139542896
0.166773071941
0.167405417271
0.16803353594
0.168654722723
0.169266355626
0.169865569488
0.170448844288
0.171011825149
0.171549379393
0.17205470583
0.1725141667
0.172902987718
0.173204392759
0.173387109314
0.173457280821
0.173420643344
0.173284403915
0.173056534073
0.172749059449
0.17238665716
0.171968295685
0.171492837924
0.171029832826
0.170541834717
0.170016778464
0.169592254078
0.1693429584
0.169278021274
0.169371221176
0.169571311441
0.16979218131
0.169885079043
0.16983131548
0.169813250022
0.169802166273
0.152803074038
0.152811155607
0.152822307015
0.152860140524
0.152907287947
0.152950098874
0.152996840155
0.153058053896
0.153117102423
0.153196132625
0.153302560584
0.153418009424
0.153539123204
0.153659356946
0.153792441048
0.153939363652
0.154091961516
0.154248391364
0.154416253527
0.154600171014
0.154803741291
0.155031176003
0.155302344133
0.155618313276
0.155939620584
0.156290209129
0.156683624529
0.157086156531
0.157510924722
0.157959825416
0.158417238049
0.158873808384
0.159334113351
0.159811698282
0.160306516726
0.160818937254
0.161349121964
0.161897103515
0.162463056781
0.16304665427
0.163647673849
0.164265565928
0.164898135058
0.165541816628
0.166192804923
0.166847613765
0.16750318049
0.168156807544
0.168806081723
0.169448961378
0.170083813211
0.170709394773
0.171325066549
0.171929840703
0.172517855636
0.17306321899
0.173521449631
0.17392808837
0.174208216159
0.174338152843
0.174303101393
0.174110088787
0.173790026243
0.173363467371
0.172897895603
0.172349495601
0.17163023149
0.170902283191
0.170211524447
0.169513901679
0.168979962381
0.168665356773
0.16864646737
0.168879923822
0.169309811192
0.16980127459
0.169956302828
0.169694343298
0.169668180572
0.169649023415
0.152651573733
0.152660884572
0.152676645377
0.152704357684
0.152746212364
0.152793353379
0.152844461884
0.152908410176
0.152978085784
0.153058687281
0.153167676748
0.153284336105
0.153405277912
0.153524089692
0.153658250162
0.153812774924
0.153967965203
0.154124833805
0.154292405563
0.154475671404
0.154677093999
0.154898831738
0.155164481397
0.155490800535
0.15582719774
0.15617463697
0.156571124051
0.156981847367
0.157401526502
0.157847224849
0.158298328929
0.1587541489
0.159224068868
0.159710644173
0.160214401704
0.160736130901
0.161276454444
0.161835225341
0.16241287655
0.163009818272
0.163625842514
0.164260395456
0.16491153991
0.165575577905
0.166248488258
0.166927069394
0.167608774269
0.168291093865
0.168971597875
0.169648697307
0.170322289841
0.170994660775
0.171671319513
0.17235822494
0.173050515713
0.173698757338
0.1742401064
0.174964147988
0.175435707809
0.1756424969
0.175540232741
0.175134031442
0.174521418933
0.17382627628
0.173215477793
0.17266292056
0.171933429161
0.170820590862
0.169698072029
0.168747933005
0.167920462937
0.167418138131
0.16749615748
0.168014803995
0.168887350179
0.170100944659
0.170343209959
0.16942800747
0.169483769499
0.169453007337
0.152481258474
0.152491796352
0.152516492458
0.152534970596
0.152570627476
0.152618862666
0.152673442208
0.15274155382
0.152824019388
0.152905556949
0.153015901458
0.153133999787
0.153256063938
0.153376485532
0.153511472088
0.153668931359
0.153826855898
0.153986102709
0.154154814272
0.154338079972
0.154538827044
0.154758398656
0.155015066855
0.155337810994
0.155697474066
0.156052334337
0.156436533072
0.156862713967
0.157291214142
0.157719743681
0.158163683107
0.158623289299
0.159101106251
0.159597043314
0.160110785666
0.160642867095
0.161194017929
0.16176476068
0.162355367161
0.1629664996
0.163598745381
0.164251561397
0.164922897612
0.165608998245
0.166305855417
0.167010741971
0.167721705072
0.168436185751
0.169151023323
0.169864357875
0.170577938695
0.171298899861
0.172041147812
0.172820290174
0.173641626196
0.174477675521
0.174762156203
0.174885042309
0.175128553048
0.175289192462
0.17517899314
0.17481991716
0.174293572107
0.17366921979
0.173005390119
0.172296065416
0.171417881437
0.170410073625
0.1694236027
0.168558072597
0.167904264436
0.16763978518
0.167855315936
0.16854889832
0.169754272131
0.171625678814
0.172368541333
0.167950139275
0.169109884775
0.169203333002
0.152288592969
0.152298499735
0.152321811388
0.15234210741
0.152375379589
0.152424912364
0.152481231478
0.152549302087
0.152643797664
0.152734134432
0.152845571212
0.152965860992
0.153090572924
0.15321511498
0.15335252894
0.15351082665
0.153670499981
0.153832669859
0.154003321809
0.154187163296
0.154387467188
0.15460660063
0.154857221636
0.155171616131
0.155545172485
0.155916824683
0.156292568419
0.156711166201
0.157149449461
0.157582213218
0.158020888305
0.158481323757
0.158965500446
0.159470722219
0.159994887713
0.160537849301
0.161100735343
0.161684227019
0.162289020868
0.162915714537
0.16356534068
0.164237948323
0.164931373767
0.165641403721
0.166363988549
0.167097542085
0.167841392206
0.16859223316
0.169344048634
0.17009393011
0.170846542159
0.1716135997
0.172416504518
0.173277300352
0.174223259613
0.17437759773
0.174596808458
0.174811645964
0.174959877083
0.175033437993
0.174905702373
0.174556824014
0.174033142073
0.173386287547
0.172659752218
0.171868600354
0.170990132982
0.170046487781
0.169118641901
0.168281771368
0.16762458429
0.167282857866
0.167346282209
0.167834096434
0.168666007889
0.169599859359
0.169194791616
0.169752530496
0.170578534998
0.168907186171
0.152075493491
0.152084593234
0.152108693133
0.15212932378
0.152162905403
0.152212765194
0.152270366883
0.152335548595
0.152431741445
0.152536020885
0.152653091622
0.152777081826
0.152906095981
0.153038361275
0.153178824106
0.153337863751
0.153499141359
0.153664695786
0.15383777998
0.15402277689
0.154222951899
0.154441305848
0.154687747899
0.154992224841
0.155365115583
0.155762577933
0.156146337789
0.156551260973
0.156983097898
0.157416837394
0.157857605317
0.158324039079
0.158815679994
0.159330099139
0.159865129435
0.160420000553
0.160995307288
0.161592474075
0.162212405632
0.162856045088
0.163524455873
0.164218187447
0.164935646166
0.165672034173
0.166422452815
0.167186768288
0.167966821101
0.168758147527
0.169549452313
0.170335496002
0.171124367162
0.171929608335
0.172775571169
0.173630225474
0.173956499403
0.174251410596
0.174410840299
0.174545164412
0.174611030631
0.174576519545
0.174377272443
0.173988622858
0.173434128411
0.172751008284
0.171971422311
0.171113720596
0.17018394849
0.169206567141
0.168240047908
0.167360040161
0.166624201168
0.166124047818
0.165952322579
0.166116942243
0.166528031413
0.167056289295
0.167441054002
0.168425261196
0.169222436255
0.171669554146
0.151844254452
0.151851841842
0.151871819377
0.151895406897
0.151933579192
0.151983880347
0.152044196247
0.152108352483
0.152203422968
0.152315943194
0.152438101812
0.152565403783
0.152697438841
0.152840264448
0.15298704763
0.153147036279
0.153310517332
0.153480825403
0.153657261621
0.153844126329
0.154044698496
0.154262110353
0.154505218156
0.154801169869
0.155167919198
0.155581040045
0.155984264181
0.156384279058
0.15680387296
0.157232632792
0.157676993018
0.158149435696
0.158648774244
0.159172286356
0.159718707864
0.160286820526
0.160876108203
0.161487774477
0.162124080755
0.162785807436
0.163474390135
0.164191214628
0.164935023576
0.165700281267
0.166479523984
0.167275341268
0.168098169895
0.168940428124
0.169772638549
0.17059113114
0.171411406497
0.172246241158
0.173090471952
0.173414139426
0.173714420925
0.173950407728
0.174081871086
0.174148450076
0.174129923741
0.173993805033
0.173707201612
0.173253594709
0.17264364407
0.171901902802
0.171053454444
0.170118678487
0.169115422492
0.168071096108
0.167030486508
0.166050945731
0.165161597842
0.164412844733
0.163884093459
0.163594057816
0.163506438772
0.163603350234
0.163892281248
0.164787126965
0.167239486893
0.169654624205
0.151597858562
0.151604180183
0.151618904403
0.151646005012
0.151688071893
0.15173855443
0.151800903648
0.15186809621
0.1519597852
0.152076381504
0.152201747592
0.152331270105
0.152463877011
0.152612436723
0.152770926894
0.152934499423
0.153100949904
0.153276815482
0.153459037208
0.153649412916
0.153851658259
0.154068141339
0.154308612045
0.154597284268
0.154952903465
0.155363582801
0.155787215615
0.156197758892
0.156613282554
0.157038343568
0.15748096424
0.157957303012
0.158464075403
0.15899505854
0.159553781052
0.160136298727
0.160739768779
0.161367433314
0.162021648616
0.162703577344
0.163414092582
0.164154996398
0.164926361211
0.165724544378
0.166543933805
0.167385824083
0.168254598807
0.16913362421
0.170001365796
0.170861487945
0.171713698856
0.172591280579
0.172893397525
0.173159480993
0.173392398122
0.173560475952
0.173633538606
0.173611844769
0.173485793241
0.173234993385
0.172840342824
0.1722918922
0.171594959928
0.170765788711
0.169823841769
0.16878793836
0.167677059616
0.166515068274
0.165333821691
0.164169917011
0.163050811296
0.161973931146
0.160969048084
0.160059204032
0.159204740058
0.158355691238
0.157473251271
0.156634947317
0.155821090493
0.153695849205
0.15133742425
0.151343431229
0.151356545251
0.151387265042
0.151429169086
0.15147785901
0.151538104508
0.15160995892
0.151698121014
0.151816553433
0.151944354687
0.152075984684
0.15221005478
0.152359403633
0.152527777657
0.152698273425
0.152869492804
0.153050257029
0.15323900742
0.153435351412
0.153641900307
0.153858336931
0.154096642747
0.154379876712
0.154724727279
0.15512715426
0.155558492707
0.155982258456
0.156395524754
0.156818227081
0.157265986253
0.157743989975
0.158255717165
0.158796356722
0.159367920182
0.159964952439
0.160583856872
0.161228756949
0.161902161293
0.162605752897
0.163340536605
0.164108514338
0.164913174763
0.165756423849
0.166629479296
0.167516606709
0.168417972315
0.16933137359
0.170253282263
0.171175580432
0.172141073252
0.172414244816
0.172630808491
0.172829879017
0.172985863979
0.173064435442
0.173042487338
0.172911705335
0.172664526463
0.172288299159
0.171771218736
0.171107500258
0.170300353801
0.169360469559
0.168301985635
0.167139766318
0.165889140543
0.164567272393
0.163193599926
0.161786436738
0.160359754138
0.158859912697
0.157250320249
0.155519373717
0.153564807839
0.151204958122
0.148193217663
0.144318226602
0.139691193918
0.139277031167
0.151060277567
0.151066473787
0.151080167537
0.151114974652
0.151156124065
0.151202403628
0.151258394903
0.151333032162
0.151416179468
0.151534924644
0.151665195474
0.151799071493
0.151935623782
0.152087113393
0.152260831435
0.152438387647
0.152615953481
0.152802029674
0.15299603683
0.153198925249
0.1534124013
0.153630792773
0.153867134252
0.154146308052
0.154481938864
0.154874038302
0.155304702104
0.155736393352
0.156159185494
0.156581558391
0.157032352723
0.157514570709
0.158028057123
0.158571457116
0.159152375801
0.159767283582
0.160405105755
0.161069376333
0.161762943673
0.162489224527
0.163250917159
0.164050913624
0.164899296965
0.165798647286
0.166720781783
0.167644551849
0.168581925006
0.169561440195
0.17058444571
0.171685032154
0.171957406573
0.172134929129
0.172290530064
0.172415093373
0.172473033517
0.172439728605
0.172298946347
0.172041187136
0.171659284217
0.171145038879
0.170491193707
0.169694265846
0.16875604316
0.167682944599
0.166483860487
0.165168188528
0.163744878276
0.162222011717
0.160605569378
0.158895708278
0.157083578848
0.155095921103
0.152797153659
0.150083021437
0.146748995412
0.14235840046
0.136074905607
0.126139441977
0.107478230859
0.0620798651199
0.150760164773
0.150766497718
0.150782630564
0.150822083305
0.150863190612
0.15090771067
0.150961581712
0.151036096022
0.151113759819
0.151230680043
0.151363091991
0.151499137722
0.151638199195
0.151791892487
0.151968999522
0.152152943383
0.15233882979
0.152530982307
0.152729377772
0.152938026291
0.153159890549
0.15338313839
0.153617475557
0.153893162421
0.154221809625
0.154602710288
0.155026162782
0.155455336374
0.155890345001
0.156325979919
0.156777416952
0.157257999325
0.157776971264
0.158330028127
0.158913384686
0.159539036707
0.160197282292
0.160883298452
0.161600814296
0.162351919172
0.163141756459
0.163982369884
0.164889669521
0.165847350102
0.166811352687
0.167776145014
0.168781438177
0.16989557322
0.171165151959
0.171465544843
0.171629963988
0.171762865233
0.1718587768
0.171887520261
0.171828761595
0.171667310256
0.171391168687
0.170992068869
0.170464023889
0.169801491298
0.168999733031
0.168056117694
0.166970835778
0.165746479942
0.164386686898
0.162894551598
0.161271224553
0.1595143912
0.15761576071
0.155556453621
0.153298956473
0.15077906092
0.147784350626
0.144047705812
0.139274298961
0.132836795566
0.123502908029
0.10889450793
0.0842114781716
0.0431295006557
0.150428407473
0.150434852413
0.150453381347
0.15049755984
0.150538448671
0.150584402519
0.150637917357
0.150710456188
0.150785754845
0.150901977806
0.151036554643
0.151174598914
0.151315940933
0.151471283806
0.151650039809
0.151838087611
0.152034082707
0.15223381498
0.152436891919
0.152650580003
0.152880290631
0.153112481231
0.15334613022
0.153617115579
0.153940854095
0.154312058472
0.15472624543
0.155148482732
0.155583434892
0.156035888716
0.156502053822
0.156984309618
0.157494219326
0.158051060212
0.158648357368
0.159283805317
0.159958443605
0.160666276818
0.161408626789
0.162188282965
0.163013921017
0.163909623273
0.16488303708
0.165894082957
0.166911638382
0.16795839996
0.169077251822
0.17045629318
0.170848840081
0.171051485749
0.171198997219
0.171291931931
0.171303376051
0.171220417897
0.171033551343
0.170733060465
0.170310788923
0.169760866431
0.169078902617
0.168260961428
0.167303451474
0.166203589869
0.16495962423
0.163570406829
0.162034331951
0.160347888453
0.158503960865
0.156489634956
0.154282887161
0.151847299811
0.149123576883
0.146018945308
0.142352109038
0.137743264522
0.131744071305
0.123743971164
0.112615900734
0.0965006272223
0.0721524936878
0.038599676013
0.150057924138
0.150066239862
0.150085773927
0.150129383381
0.150173274658
0.150225742918
0.150282702227
0.150356201476
0.150435927895
0.150547762922
0.150683787852
0.15082376665
0.15096734016
0.151124016191
0.151303232438
0.151491766728
0.151694017106
0.151904464624
0.152114962238
0.152334884969
0.152570556345
0.152814670175
0.153055483104
0.153318274093
0.153636796881
0.154000342145
0.154405231714
0.154820698919
0.155249299407
0.155708469984
0.15619069296
0.156686988933
0.157196562478
0.157746034895
0.158345343508
0.158993905515
0.159686259271
0.160416761917
0.161183750687
0.161994707363
0.162870550257
0.163834433593
0.16487175695
0.165944640407
0.167054774635
0.168250308404
0.169452124856
0.169997929499
0.170308228335
0.170533156677
0.170664318312
0.170688243807
0.170600465783
0.170397682724
0.170075507877
0.169629244865
0.169054853542
0.168349125071
0.167509240673
0.166532227276
0.165414754814
0.164153194115
0.162743541395
0.161180928658
0.15945864625
0.157566718879
0.155490016747
0.153205672102
0.150679324189
0.147859496521
0.14466919059
0.140993320923
0.136664228148
0.1313526949
0.124500022851
0.115443453699
0.103319120302
0.086771281533
0.0634039086584
0.0338847028475
0.149653413714
0.149664954069
0.149684520016
0.149722016441
0.149771783573
0.149831176408
0.149894262962
0.14997285343
0.150062438818
0.150169107943
0.150303940351
0.150445155463
0.150591018806
0.150749204853
0.150929111719
0.151118436125
0.151321480067
0.151541019147
0.151761692319
0.151990332431
0.152231911237
0.152487567848
0.152744878765
0.15300985075
0.153315050097
0.153669294718
0.154064601037
0.154473457957
0.154893654402
0.155350255026
0.155839224443
0.156354130763
0.156875203452
0.157420284787
0.158014115019
0.15866533531
0.159371880167
0.160126686786