/*--------------------------------*- C++ -*----------------------------------*\
| =========                 |                                                 |
| \\      /  F ield         | OpenFOAM: The Open Source CFD Toolbox           |
|  \\    /   O peration     | Version:  v1806                                 |
|   \\  /    A nd           | Web:      www.OpenFOAM.com                      |
|    \\/     M anipulation  |                                                 |
\*---------------------------------------------------------------------------*/
FoamFile
{
    version     2.0;
    format      ascii;
    class       surfaceScalarField;
    location    "153";
    object      phi;
}
// * * * * * * * * * * * * * * * * * * * * * * * * * * * * * * * * * * * * * //

dimensions      [0 3 -1 0 0 0 0];
oriented        oriented;


internalField   nonuniform List<scalar> 
12640
(
-1.74931456351e-07
1.74204019882e-07
-3.41060762833e-07
1.65447374533e-07
-4.92778783028e-07
1.51165278056e-07
-6.22494758203e-07
1.29202117465e-07
-7.11809815373e-07
8.88457072463e-08
-7.55343298692e-07
4.31435924516e-08
-7.75849737896e-07
2.01637779387e-08
-8.29162254718e-07
5.29953540082e-08
-9.18828227544e-07
8.93395942862e-08
-1.00046846677e-06
8.13302901756e-08
-1.07520429862e-06
7.4441942863e-08
-1.16266786941e-06
8.71766016121e-08
-1.24003438148e-06
7.70785000597e-08
-1.2968273745e-06
5.65198751511e-08
-1.34323051594e-06
4.61563528035e-08
-1.40216493439e-06
5.8732608275e-08
-1.46408646084e-06
6.17267070631e-08
-1.5082027489e-06
4.3934364761e-08
-1.52926293336e-06
2.0846830808e-08
-1.53664678729e-06
7.13652888527e-09
-1.56220204231e-06
2.52776927519e-08
-1.61504430937e-06
5.25567624956e-08
-1.67908259015e-06
6.37435051963e-08
-1.7454477841e-06
6.60835505898e-08
-1.80600017811e-06
6.02800059974e-08
-1.85790684801e-06
5.16455591743e-08
-1.90773115107e-06
4.95600931248e-08
-1.9516077416e-06
4.36216539887e-08
-1.98526496992e-06
3.3397424374e-08
-2.0105768795e-06
2.50632421827e-08
-2.03654913452e-06
2.57152300426e-08
-2.05980576732e-06
2.30052411535e-08
-2.07183274499e-06
1.17778744279e-08
-2.08402220531e-06
1.1930693112e-08
-2.09352957516e-06
9.21800191059e-09
-2.09839506159e-06
4.57284557797e-09
-2.1087502183e-06
1.00389748073e-08
-2.11781879528e-06
8.72878043317e-09
-2.12066571994e-06
2.47725496109e-09
-2.13168765795e-06
1.06285520955e-08
-2.18446414067e-06
5.23714447213e-08
-2.24669037394e-06
6.18576420983e-08
-2.26479911103e-06
1.77567687213e-08
-2.25771451588e-06
-7.43912444149e-09
-2.24039945132e-06
-1.76767462131e-08
-2.21161152128e-06
-2.9155900627e-08
-2.17253591098e-06
-3.94550516209e-08
-2.12118463667e-06
-5.17348594774e-08
-2.06179423159e-06
-5.97800070045e-08
-2.01604100573e-06
-4.61432768238e-08
-2.00439555798e-06
-1.20527355388e-08
-1.99017259113e-06
-1.46352235836e-08
-1.89702666698e-06
-9.35792480949e-08
-1.75795031303e-06
-1.39573299993e-07
-1.59573534868e-06
-1.62713104902e-07
-1.38591611163e-06
-2.10313268695e-07
-1.18841720779e-06
-1.98051942699e-07
-1.02386774353e-06
-1.65211987977e-07
-8.36796220385e-07
-1.87850503492e-07
-6.23816902351e-07
-2.1387641492e-07
-3.98001850011e-07
-2.2684126936e-07
-1.51801000381e-07
-2.47379980793e-07
1.70950980184e-07
-3.24077845768e-07
4.06262332501e-07
-2.36269387144e-07
5.53908825127e-07
-1.4825030267e-07
6.54798401015e-07
-1.01329019074e-07
7.29906417809e-07
-7.55005552641e-08
7.9361658048e-07
-6.41376629969e-08
8.46208300742e-07
-5.30874538746e-08
8.81543002311e-07
-3.59060555441e-08
8.93759675946e-07
-1.28292901374e-08
8.78226686543e-07
1.49280365288e-08
8.31873557115e-07
4.57466586404e-08
7.44312913763e-07
8.69417653315e-08
6.44025173624e-07
9.96876709704e-08
5.35674158593e-07
1.0781237736e-07
4.47507354209e-07
8.75925329838e-08
3.26532587848e-07
1.20488232181e-07
2.01998140314e-07
1.23416544844e-07
2.01377518754e-07
-8.55154223954e-08
2.59236376822e-07
-1.98497874837e-07
2.77924949452e-07
-3.09126982651e-07
2.61350099684e-07
-4.29945042231e-07
2.4963699455e-07
-6.00636606557e-07
2.59167975517e-07
-7.43008234549e-07
1.85115260562e-07
-8.23963568681e-07
1.00745344864e-07
-8.91492640967e-07
1.20142406733e-07
-9.62169842232e-07
1.59662460126e-07
-1.04465295405e-06
1.63463149124e-07
-1.12504831112e-06
1.54524316245e-07
-1.18640875785e-06
1.48227204762e-07
-1.24149822643e-06
1.31898600087e-07
-1.29689774287e-06
1.11670969295e-07
-1.35070908866e-06
9.97648444743e-08
-1.41340954759e-06
1.2122482026e-07
-1.46134768453e-06
1.09498312372e-07
-1.45752818099e-06
3.99080749188e-08
-1.44651667484e-06
9.62301727341e-09
-1.46390904554e-06
2.4270534083e-08
-1.51233855594e-06
7.34212147416e-08
-1.59914895422e-06
1.39046640288e-07
-1.68811103682e-06
1.5241456126e-07
-1.74634098647e-06
1.24015315915e-07
-1.79944917241e-06
1.13121209574e-07
-1.86372808672e-06
1.15643971873e-07
-1.91559346515e-06
1.01169114745e-07
-1.95330682867e-06
8.10617003752e-08
-1.984438631e-06
6.42791034403e-08
-2.00997731734e-06
5.0334219296e-08
-2.02664488805e-06
4.21377392675e-08
-2.03750617441e-06
3.36215181592e-08
-2.03769089566e-06
1.17144919826e-08
-2.04024852094e-06
1.42169858235e-08
-2.06069738927e-06
2.9408377115e-08
-2.06485455687e-06
8.41016135219e-09
-2.06791357886e-06
1.27657969295e-08
-2.09582580251e-06
3.62930815058e-08
-2.13386405542e-06
4.01467318214e-08
-2.15148440324e-06
2.78351141141e-08
-2.06619697592e-06
-3.32999064089e-08
-1.94117067043e-06
-6.35107640151e-08
-1.89651634191e-06
-2.72180398619e-08
-1.89754368224e-06
-6.74837737257e-09
-1.91190531393e-06
-3.65427869965e-09
-1.93552256773e-06
-5.89769628286e-09
-1.95616286129e-06
-1.91804579455e-08
-1.97228084751e-06
-3.59993885118e-08
-1.97539363339e-06
-5.70587255499e-08
-1.93165452449e-06
-9.02819579938e-08
-1.8206853789e-06
-1.23407952284e-07
-1.70805009021e-06
-1.27647995841e-07
-1.72217673393e-06
-7.98722153771e-08
-1.72658190604e-06
-1.35652486891e-07
-1.63668836795e-06
-2.5309691991e-07
-1.55402444372e-06
-2.93525828218e-07
-1.44278799749e-06
-3.09958237833e-07
-1.26545623813e-06
-3.43332265515e-07
-1.05853029643e-06
-3.95709895058e-07
-8.08866426028e-07
-4.64629184734e-07
-4.88777717659e-07
-5.48118620382e-07
-1.69952241936e-07
-5.67419295459e-07
1.56746203726e-07
-6.52114038876e-07
3.93193381621e-07
-4.7366469282e-07
5.34809066859e-07
-2.90477839549e-07
6.21641767565e-07
-1.8859193727e-07
7.04189466512e-07
-1.58451387813e-07
7.86463666171e-07
-1.46851471666e-07
8.50229737791e-07
-1.17367660613e-07
8.87234136933e-07
-7.34841125933e-08
8.89990682223e-07
-1.61914473179e-08
8.59831551686e-07
4.44996411971e-08
8.196320741e-07
8.53424328239e-08
7.81141011859e-07
1.24797849876e-07
7.17896677327e-07
1.62280745852e-07
6.38481537556e-07
1.86587512124e-07
5.28076683184e-07
1.97359505197e-07
4.05190590404e-07
2.42525422504e-07
2.19358784892e-07
3.08467462735e-07
4.19810221917e-07
-1.17623110784e-07
3.76526161104e-07
-1.66216927388e-07
3.26077612315e-07
-3.18316325591e-07
4.13002240164e-07
-5.07916870833e-07
4.38822530008e-07
-6.75130292057e-07
4.26003113017e-07
-7.49018714045e-07
2.58685192003e-07
-7.80597626521e-07
1.31964443516e-07
-8.54791956868e-07
1.93921959556e-07
-9.44753835979e-07
2.49213700347e-07
-1.03478061391e-06
2.53116946433e-07
-1.11785965974e-06
2.37266592918e-07
-1.18450786745e-06
2.14601730805e-07
-1.24024464938e-06
1.87408448263e-07
-1.29562501142e-06
1.66851273307e-07
-1.32368275136e-06
1.27638181907e-07
-1.24946955966e-06
4.68409351921e-08
-1.13196724737e-06
-8.18048242215e-09
-1.1007768875e-06
8.53635916089e-09
-1.15760576813e-06
6.62326979645e-08
-1.3161394297e-06
1.82534561341e-07
-1.50208518259e-06
2.59058259013e-07
-1.6053185242e-06
2.41976302146e-07
-1.66583587953e-06
2.12634066715e-07
-1.74521642051e-06
2.03113991631e-07
-1.81880447e-06
1.86428038182e-07
-1.86877098978e-06
1.65345786898e-07
-1.9085523767e-06
1.40682245429e-07
-1.94409085687e-06
1.16343587421e-07
-1.97166006724e-06
9.15865804563e-08
-1.99543232743e-06
7.38588174504e-08
-2.0047265146e-06
5.1191651628e-08
-2.00650366573e-06
3.51522005473e-08
-2.01573928255e-06
2.07172018628e-08
-1.98525130595e-06
-1.65221535919e-08
-1.96730145549e-06
1.11618424345e-08
-2.01063128689e-06
5.1427114942e-08
-2.01977577998e-06
2.15662991299e-08
-2.02712363512e-06
4.32828287627e-08
-2.09738724593e-06
1.1002711089e-07
-2.1715741091e-06
1.01630786898e-07
-2.23176106564e-06
2.64925391991e-08
-2.26922001701e-06
-2.64349052437e-08
-2.27108378161e-06
-2.57379494515e-08
-2.25983982673e-06
-1.83738788785e-08
-2.24336572427e-06
-2.05182239542e-08
-2.21964371436e-06
-3.00126740981e-08
-2.19202181121e-06
-4.7204350493e-08
-2.15944342082e-06
-6.89832406562e-08
-2.1214676307e-06
-9.54452880501e-08
-2.08415886855e-06
-1.2800188362e-07
-2.04834704114e-06
-1.59637717476e-07
-1.99439429139e-06
-1.82032752283e-07
-1.86905828324e-06
-2.05655202074e-07
-1.73400239294e-06
-2.7116670239e-07
-1.65861839567e-06
-3.28970236965e-07
-1.57620908437e-06
-3.76503180558e-07
-1.43923736695e-06
-4.47601309016e-07
-1.25516640548e-06
-5.28186638584e-07
-1.03610379469e-06
-6.15680986517e-07
-7.87861183156e-07
-7.13915781609e-07
-5.28285579353e-07
-8.0884767397e-07
-2.04491967152e-07
-8.92522835605e-07
8.93997988564e-08
-9.47308688136e-07
3.17115800304e-07
-7.02235944545e-07
4.80104911281e-07
-4.5402222115e-07
6.13596295004e-07
-3.22529579453e-07
7.13788594506e-07
-2.59060289465e-07
7.81984863247e-07
-2.15485141344e-07
8.28850552662e-07
-1.64721723618e-07
8.54713127878e-07
-9.9885636029e-08
8.68677887054e-07
-3.07110953306e-08
8.85264122404e-07
2.73272045384e-08
8.86435179191e-07
8.35569918577e-08
8.45195843678e-07
1.65378078238e-07
7.57823854202e-07
2.49003480386e-07
6.47105666479e-07
2.96660109468e-07
5.31688714979e-07
3.12129989429e-07
4.177880369e-07
3.55910379237e-07
1.8895928835e-07
5.35991301741e-07
6.08592239818e-07
-8.17572352677e-08
4.57837967432e-07
-9.72272726183e-08
3.41261361747e-07
-2.8793928236e-07
6.03294469047e-07
-4.32036880063e-07
5.82542881769e-07
-4.07040909886e-07
4.00736092108e-07
-3.20943808551e-07
1.72446387529e-07
-4.55585220538e-07
2.66357811011e-07
-7.10329476898e-07
4.48234935202e-07
-8.90349129266e-07
4.28801792161e-07
-1.00703285034e-06
3.69423195859e-07
-1.1056561552e-06
3.35590646742e-07
-1.1835725801e-06
2.92284094984e-07
-1.22060092203e-06
2.24248420427e-07
-1.16590748106e-06
1.12007400226e-07
-1.05232668126e-06
1.39045027706e-08
-9.98108670283e-07
-7.56205561413e-09
-1.0368160315e-06
3.03227200894e-08
-1.16348743086e-06
1.34966766893e-07
-1.35824234178e-06
2.6070362306e-07
-1.49678565542e-06
3.20778232148e-07
-1.55528703925e-06
3.17261582746e-07
-1.6217735625e-06
3.08159554585e-07
-1.69879003212e-06
2.89357731964e-07
-1.76020702032e-06
2.64246744112e-07
-1.81133711101e-06
2.37292825096e-07
-1.85424153266e-06
2.07985543973e-07
-1.89525216541e-06
1.81441700163e-07
-1.92839166084e-06
1.49222919205e-07
-1.95778177821e-06
1.20729774756e-07
-1.97188863836e-06
8.77265711764e-08
-1.986272681e-06
6.53391341317e-08
-1.97838341235e-06
2.70476143598e-08
-1.94263415303e-06
-1.52760219403e-08
-1.96977093624e-06
1.03317731293e-08
-1.98111743197e-06
2.22053237313e-08
-1.98755853277e-06
5.75311057803e-08
-2.08718519676e-06
1.20820068202e-07
-2.18103445047e-06
1.36741031409e-07
-2.20469184077e-06
1.33299246253e-07
-2.20784574081e-06
1.0439395658e-07
-2.22936004301e-06
4.76143516536e-08
-2.25646971873e-06
2.83000244985e-10
-2.26499516754e-06
-1.75964990906e-08
-2.25888389935e-06
-2.48695911334e-08
-2.24442682989e-06
-3.53601548543e-08
-2.22328361574e-06
-5.1547114178e-08
-2.19734663808e-06
-7.35372564555e-08
-2.16659748379e-06
-1.0013576125e-07
-2.13105513968e-06
-1.3139494912e-07
-2.09186879099e-06
-1.6760091681e-07
-2.04557463458e-06
-2.06349067505e-07
-1.98144453139e-06
-2.4658807245e-07
-1.89245928688e-06
-2.95079115707e-07
-1.80379748934e-06
-3.60288227596e-07
-1.70721357984e-06
-4.26052340765e-07
-1.58400258136e-06
-5.00285204777e-07
-1.43091618349e-06
-6.01349952458e-07
-1.24034602403e-06
-7.19532268259e-07
-1.01247548825e-06
-8.44435789402e-07
-7.58544804755e-07
-9.6882075428e-07
-4.89095340962e-07
-1.07936373086e-06
-2.18517277195e-07
-1.16422989643e-06
-5.77123899292e-09
-1.16105702594e-06
2.64553492962e-07
-9.73383471959e-07
4.75546686138e-07
-6.65645519158e-07
6.02628491177e-07
-4.50080482843e-07
7.00178420796e-07
-3.57032708095e-07
7.82485689602e-07
-2.9822908962e-07
8.48779799755e-07
-2.31481217071e-07
9.02668701365e-07
-1.54281158592e-07
9.44366942799e-07
-7.29708317839e-08
9.52413681001e-07
1.87014794332e-08
8.96582815313e-07
1.38791644157e-07
8.03331742915e-07
2.58080442689e-07
7.031291727e-07
3.48614160626e-07
5.74223172221e-07
4.24973072754e-07
4.20259548196e-07
4.65605834709e-07
2.93198232569e-07
4.82350510279e-07
1.54170864016e-07
6.74859428715e-07
7.62268527442e-07
-6.97142942068e-09
4.64665700897e-07
-9.00500675951e-08
4.24093018759e-07
-2.4839376477e-07
7.61313239001e-07
-3.2811301475e-07
6.62012748546e-07
-2.74715486513e-07
3.47158462233e-07
-3.3959663702e-07
2.37141913919e-07
-5.45669247338e-07
4.72098546764e-07
-7.16715254012e-07
6.18878203861e-07
-8.41966241247e-07
5.5365617694e-07
-9.60139038202e-07
4.87267425238e-07
-1.06764463926e-06
4.42850600454e-07
-1.09255265808e-06
3.17006243449e-07
-1.01433313943e-06
1.45895318731e-07
-9.51186749876e-07
4.87117176365e-08
-9.77937567899e-07
4.04557264316e-08
-1.07271387021e-06
8.69787695003e-08
-1.22927223385e-06
1.8660761149e-07
-1.38915057791e-06
2.94541570386e-07
-1.46344378772e-06
3.34702055135e-07
-1.49164361426e-06
3.48689070562e-07
-1.55527321679e-06
3.80595893973e-07
-1.6307313959e-06
3.83322342964e-07
-1.69677006476e-06
3.55111343102e-07
-1.7508034062e-06
3.18013707303e-07
-1.79733342499e-06
2.83561341984e-07
-1.84331973141e-06
2.53728196612e-07
-1.87475980334e-06
2.12626021803e-07
-1.90832557643e-06
1.82547961401e-07
-1.92579156617e-06
1.37966850889e-07
-1.94251716002e-06
1.04226659556e-07
-1.93253004582e-06
5.51374017187e-08
-1.9366513275e-06
3.09365033602e-08
-1.98651223476e-06
3.43258528168e-08
-1.97748510554e-06
9.98413040012e-10
-2.01185010506e-06
5.62247341192e-08
-2.10125991369e-06
1.46564019421e-07
-2.1593757026e-06
1.7855196718e-07
-2.19521253396e-06
1.72197148534e-07
-2.2108918324e-06
1.48595997542e-07
-2.21934528779e-06
1.12461926779e-07
-2.23643180705e-06
6.43108745937e-08
-2.25627534063e-06
1.97377652853e-08
-2.26516855839e-06
-9.0901883006e-09
-2.26173303951e-06
-2.86892075099e-08
-2.24939737483e-06
-4.80814445294e-08
-2.23036758677e-06
-7.09654619577e-08
-2.20600252592e-06
-9.82975111208e-08
-2.1765459676e-06
-1.29993298791e-07
-2.14176565257e-06
-1.66582865885e-07
-2.10097798099e-06
-2.08800061841e-07
-2.05108286496e-06
-2.56659626881e-07
-1.98713610782e-06
-3.10955720407e-07
-1.90834813093e-06
-3.74298742651e-07
-1.82137855493e-06
-4.47712046023e-07
-1.71897050748e-06
-5.28963615374e-07
-1.58988419783e-06
-6.2993798169e-07
-1.4291358936e-06
-7.62770192802e-07
-1.23028603784e-06
-9.19144468294e-07
-9.9463870418e-07
-1.08093319751e-06
-7.37067305521e-07
-1.22730955709e-06
-4.76118505121e-07
-1.34124956227e-06
-2.44418564725e-07
-1.39683235275e-06
-7.95391626675e-08
-1.3268187959e-06
2.39030002448e-07
-1.29281914986e-06
4.72271442304e-07
-8.99531017173e-07
6.19589966604e-07
-5.97922905816e-07
7.24770099959e-07
-4.62676746244e-07
8.09418282785e-07
-3.83305774193e-07
8.82856999352e-07
-3.05362061597e-07
9.52301978994e-07
-2.24206027269e-07
9.92116811914e-07
-1.13299028251e-07
9.55858273757e-07
5.44254552602e-08
8.73795617945e-07
2.20404071219e-07
7.84340927893e-07
3.46997600626e-07
6.73537863986e-07
4.5889739644e-07
5.31599628139e-07
5.664103087e-07
4.09254293447e-07
5.87544873776e-07
2.79467019234e-07
6.1199597929e-07
1.27334614233e-07
8.26169663604e-07
8.89604837352e-07
-1.26087412731e-09
4.65706593055e-07
-1.24302929577e-07
5.46939238734e-07
-2.01175505105e-07
8.37927960856e-07
-2.31440135118e-07
6.92046585849e-07
-2.09907608726e-07
3.2548525744e-07
-3.97677058741e-07
4.24671932883e-07
-6.17943753879e-07
6.9200679289e-07
-7.10178166843e-07
7.1073349073e-07
-8.04571829744e-07
6.47734140081e-07
-8.8290268254e-07
5.65338825768e-07
-8.92160353004e-07
4.51900078774e-07
-8.02670688834e-07
2.27399348565e-07
-7.79118295813e-07
1.22204018503e-07
-8.42234504803e-07
1.11642138673e-07
-9.59204742773e-07
1.57190462489e-07
-1.14244281884e-06
2.69924945351e-07
-1.32211855574e-06
3.65968457846e-07
-1.38835442268e-06
3.60492580283e-07
-1.40826487503e-06
3.54336728467e-07
-1.48457265411e-06
4.24707416225e-07
-1.56587014806e-06
4.61600085231e-07
-1.62666545497e-06
4.43833376312e-07
-1.68266069423e-06
4.10835989189e-07
-1.74004042887e-06
3.75130363323e-07
-1.78951430734e-06
3.32792014036e-07
-1.80560872131e-06
2.69580094797e-07
-1.84099277012e-06
2.47781650718e-07
-1.86037839405e-06
2.01711549487e-07
-1.87992912089e-06
1.57291989116e-07
-1.86153242032e-06
8.56193345036e-08
-1.85299701805e-06
4.63881095552e-08
-1.86794158614e-06
4.56397719498e-08
-1.87417337227e-06
4.02818144086e-08
-1.97563434725e-06
1.0212766843e-07
-2.08342634301e-06
1.63633367166e-07
-2.14664037529e-06
2.09391247774e-07
-2.18086979001e-06
2.12402698291e-07
-2.20178852221e-06
1.92742076027e-07
-2.21591065896e-06
1.62343940324e-07
-2.22839273639e-06
1.24563365596e-07
-2.24413001016e-06
7.96613196599e-08
-2.26000835513e-06
3.52271515897e-08
-2.26835400277e-06
-1.13120652658e-09
-2.26663558261e-06
-3.07922430423e-08
-2.2562692132e-06
-5.88322440936e-08
-2.23898628391e-06
-8.86362613914e-08
-2.21590818973e-06
-1.21768403173e-07
-2.18716870867e-06
-1.59132957961e-07
-2.15230120013e-06
-2.01857507854e-07
-2.11036209948e-06
-2.51152958395e-07
-2.05947372786e-06
-3.07966087663e-07
-1.99756228538e-06
-3.73290705462e-07
-1.92411897688e-06
-4.4817670394e-07
-1.83851863319e-06
-5.33775449888e-07
-1.73326098624e-06
-6.34726840022e-07
-1.59990419563e-06
-7.6389306456e-07
-1.43409893912e-06
-9.29241134008e-07
-1.23320002296e-06
-1.12080546302e-06
-9.98473591219e-07
-1.31648507025e-06
-7.44695499958e-07
-1.48193491903e-06
-5.03571577404e-07
-1.58320793864e-06
-3.00991333173e-07
-1.60020929257e-06
-9.87275472709e-08
-1.52986719316e-06
1.85057140403e-07
-1.57738280674e-06
4.28462108941e-07
-1.14363185157e-06
5.95579325371e-07
-7.6557216175e-07
7.36844962757e-07
-6.04403740913e-07
8.53667861306e-07
-5.00573538708e-07
9.5468096927e-07
-4.06784303305e-07
1.02929530806e-06
-2.99249533674e-07
1.02370455521e-06
-1.08166664142e-07
9.56299916909e-07
1.21453480709e-07
8.80517528847e-07
2.95678644785e-07
7.91345779548e-07
4.35766410495e-07
6.74892662607e-07
5.74827689978e-07
5.4920186957e-07
6.91656032818e-07
4.17777199424e-07
7.18657277661e-07
2.8140236961e-07
7.47825137655e-07
1.41306407607e-07
9.66314589114e-07
1.03051679511e-06
-4.39211156836e-08
5.09519940522e-07
-2.02640269766e-07
7.05456460524e-07
-2.66898999173e-07
9.01978191187e-07
-2.07728474753e-07
6.32684266679e-07
-2.63164952043e-07
3.80738478605e-07
-4.99135366299e-07
6.60338950563e-07
-6.23437907035e-07
8.15952234746e-07
-6.9327801147e-07
7.80281860958e-07
-7.39689580559e-07
6.93869654563e-07
-8.13821904884e-07
6.39274751375e-07
-7.6469538667e-07
4.02627731956e-07
-7.16479333669e-07
1.79054154908e-07
-7.71919597075e-07
1.77470956102e-07
-8.60849743302e-07
2.00343309144e-07
-1.02656327412e-06
3.22614190657e-07
-1.21738002933e-06
4.60430299563e-07
-1.28424807731e-06
4.32556910328e-07
-1.29775619014e-06
3.73737279206e-07
-1.38971105955e-06
4.46006763348e-07
-1.4889533307e-06
5.23655501487e-07
-1.55836486816e-06
5.30727858509e-07
-1.61837555905e-06
5.03571657652e-07
-1.67494523584e-06
4.67136280777e-07
-1.71343480254e-06
4.13376181795e-07
-1.73355756959e-06
3.52682750026e-07
-1.7596503585e-06
2.9544741774e-07
-1.76654047234e-06
2.54446779034e-07
-1.79241099342e-06
2.27363081482e-07
-1.79119182499e-06
1.55868948923e-07
-1.77434628746e-06
6.85690653273e-08
-1.79811650596e-06
6.99160945947e-08
-1.83953810899e-06
8.68089680569e-08
-1.9119762292e-06
1.1241604433e-07
-2.00691460743e-06
1.9670502467e-07
-2.11462506253e-06
2.7095807186e-07
-2.16425596466e-06
2.58641486743e-07
-2.1882751153e-06
2.36049859245e-07
-2.20621418402e-06
2.10312410791e-07
-2.22251604267e-06
1.78273716026e-07
-2.23769539059e-06
1.39364331142e-07
-2.25312410995e-06
9.47065329327e-08
-2.26702485127e-06
4.87424825951e-08
-2.27480859684e-06
6.26785207199e-09
-2.27409443587e-06
-3.18896726542e-08
-2.26522963925e-06
-6.80807986553e-08
-2.24931539755e-06
-1.04937189954e-07
-2.22704920558e-06
-1.44428090201e-07
-2.19841905108e-06
-1.88165633155e-07
-2.16305032526e-06
-2.37639129931e-07
-2.12041298098e-06
-2.94210174381e-07
-2.0697056731e-06
-3.59098189081e-07
-2.00996037799e-06
-4.33463913141e-07
-1.93983898612e-06
-5.18739120439e-07
-1.8558680581e-06
-6.18216906978e-07
-1.75099547117e-06
-7.40145362763e-07
-1.61858925977e-06
-8.96887214714e-07
-1.45496123219e-06
-1.09356216557e-06
-1.25740991569e-06
-1.31909553474e-06
-1.02734612392e-06
-1.54733221505e-06
-7.82576749667e-07
-1.72749464559e-06
-5.72844091745e-07
-1.79372641957e-06
-3.9680234466e-07
-1.77700488124e-06
-1.53691239412e-07
-1.77370926882e-06
3.44064145468e-08
-1.7663261372e-06
3.71660190577e-07
-1.4815507597e-06
5.94860459555e-07
-9.89279311656e-07
7.9376557757e-07
-8.03798714242e-07
9.60569055008e-07
-6.67798697356e-07
1.07397081373e-06
-5.20584169296e-07
1.10438663576e-06
-3.30028980319e-07
1.05640698193e-06
-6.0508503827e-08
9.92279911857e-07
1.85096090834e-07
9.20304184699e-07
3.67364104375e-07
8.26058744709e-07
5.29407502458e-07
7.09271664829e-07
6.91153408329e-07
6.01378130887e-07
7.99100225432e-07
4.52015627168e-07
8.67596234274e-07
2.93100099839e-07
9.06638829587e-07
1.61670103947e-07
1.09695363276e-06
1.19220959152e-06
-8.61662057378e-08
5.95462540584e-07
-2.3734260386e-07
8.56435479353e-07
-2.51468975534e-07
9.15884114964e-07
-1.47511886514e-07
5.28586528548e-07
-3.09573167711e-07
5.4259260732e-07
-5.19574162347e-07
8.70018266563e-07
-5.95509003318e-07
8.91605599967e-07
-6.72505784535e-07
8.57009875007e-07
-6.54184075482e-07
6.75373340091e-07
-6.61500542018e-07
6.46395789516e-07
-6.06081540693e-07
3.47091465766e-07
-6.92063733388e-07
2.64873691673e-07
-7.69025276138e-07
2.54224884509e-07
-9.03337179375e-07
3.34403839033e-07
-1.08823064565e-06
5.07195629111e-07
-1.17490807433e-06
5.46805291016e-07
-1.18640766841e-06
4.438081113e-07
-1.27939737559e-06
4.66461801771e-07
-1.39665487043e-06
5.62970506146e-07
-1.47440122433e-06
6.01110513079e-07
-1.53377034062e-06
5.89820341845e-07
-1.5909144044e-06
5.60443059907e-07
-1.65521731037e-06
5.31193922214e-07
-1.71275674794e-06
4.70686313562e-07
-1.71921073172e-06
3.58909194269e-07
-1.75049183231e-06
3.26516024988e-07
-1.76089459994e-06
2.64633334867e-07
-1.72945490819e-06
1.95712941494e-07
-1.72823960769e-06
1.54448267926e-07
-1.81818424248e-06
1.58282034833e-07
-1.86385186847e-06
1.1533426081e-07
-1.85502173426e-06
7.76870591902e-08
-1.95408921617e-06
2.11152223924e-07
-2.08047155937e-06
3.22709562831e-07
-2.13302646279e-06
3.23133022205e-07
-2.16687323322e-06
2.92115693123e-07
-2.19128233648e-06
2.60091648955e-07
-2.2114965943e-06
2.30160629643e-07
-2.23034822468e-06
1.96755520991e-07
-2.2478281224e-06
1.56468398638e-07
-2.26365680501e-06
1.10154048904e-07
-2.27667583714e-06
6.13781629487e-08
-2.28428492059e-06
1.34940250211e-08
-2.28440976526e-06
-3.21462920034e-08
-2.27669585101e-06
-7.61765368653e-08
-2.26166212245e-06
-1.20356013122e-07
-2.23961251492e-06
-1.66871072776e-07
-2.21045435952e-06
-2.17729924703e-07
-2.17412462819e-06
-2.74387756274e-07
-2.13076223075e-06
-3.38005035606e-07
-2.08042758059e-06
-4.09870460657e-07
-2.02266181124e-06
-4.91678660232e-07
-1.95562023772e-06
-5.86244469366e-07
-1.87510986046e-06
-6.99243559527e-07
-1.77518231285e-06
-8.40624562421e-07
-1.65105165792e-06
-1.02167711573e-06
-1.49885073838e-06
-1.2464196752e-06
-1.31185820832e-06
-1.50679466187e-06
-1.08228330744e-06
-1.7776197132e-06
-8.39710148387e-07
-1.97083878724e-06
-6.49993251598e-07
-1.98419373466e-06
-4.77046026356e-07
-1.95065800072e-06
-2.88380357219e-07
-1.9630933256e-06
-9.9571331626e-08
-1.95582132239e-06
2.62284281852e-07
-1.84408808186e-06
6.19394305852e-07
-1.3469291329e-06
8.70202644955e-07
-1.05504681539e-06
1.06382456936e-06
-8.61879435281e-07
1.16766919607e-06
-6.24784974032e-07
1.16957997293e-06
-3.32272485553e-07
1.12036130456e-06
-1.17296542422e-08
1.0607928483e-06
2.44446529276e-07
9.82505842778e-07
4.44919725152e-07
8.85070375565e-07
6.2650756729e-07
7.81114977131e-07
7.94543288883e-07
6.66957043145e-07
9.12799591775e-07
5.11231330659e-07
1.02295441725e-06
3.16166086879e-07
1.10108298012e-06
1.65344831164e-07
1.24785671949e-06
1.35717387194e-06
-1.19284998982e-07
7.14608251635e-07
-2.3834073532e-07
9.75278973404e-07
-1.9764665981e-07
8.75033207709e-07
-1.97562984124e-07
5.28354584115e-07
-3.99810179661e-07
7.44612779829e-07
-4.87561248264e-07
9.57498162859e-07
-5.5694627604e-07
9.60761272134e-07
-6.23334231434e-07
9.23205951808e-07
-6.25873011408e-07
6.77729222373e-07
-6.349131069e-07
6.55269998109e-07
-6.33623882437e-07
3.45650382037e-07
-7.04126497802e-07
3.3519866641e-07
-7.96973698094e-07
3.46842863149e-07
-9.60521731066e-07
4.97656505943e-07
-1.124435585e-06
6.70811308658e-07
-1.15437045678e-06
5.7648215783e-07
-1.18613445364e-06
4.75321289161e-07
-1.28530888908e-06
5.65353912135e-07
-1.38380176209e-06
6.61168077114e-07
-1.45539203712e-06
6.72411063343e-07
-1.51134524621e-06
6.4548460866e-07
-1.55092614019e-06
5.9977461191e-07
-1.58238680045e-06
5.62429454176e-07
-1.61457467268e-06
5.02663767885e-07
-1.64148209447e-06
3.85627334394e-07
-1.65656181208e-06
3.41382295617e-07
-1.70275499434e-06
3.1062236928e-07
-1.75609878105e-06
2.48846237454e-07
-1.7980676862e-06
1.96211452491e-07
-1.81855092027e-06
1.78530157033e-07
-1.86492558947e-06
1.61431248265e-07
-1.98954705553e-06
2.01978734123e-07
-2.06095544615e-06
2.8218782432e-07
-2.10483797074e-06
3.662119331e-07
-2.13937094961e-06
3.57296139826e-07
-2.1694246304e-06
3.21804413977e-07
-2.19569388805e-06
2.85996795289e-07
-2.21824355071e-06
2.52344279047e-07
-2.2388759323e-06
2.17017752191e-07
-2.25823309194e-06
1.75450296065e-07
-2.27540359271e-06
1.26945878797e-07
-2.2888270286e-06
7.44218943799e-08
-2.29680140237e-06
2.10902271835e-08
-2.29786124512e-06
-3.14636658881e-08
-2.2911654773e-06
-8.32493133031e-08
-2.27650862817e-06
-1.35396524804e-07
-2.25394589732e-06
-1.89831823939e-07
-2.2235267889e-06
-2.48565655729e-07
-2.18557278497e-06
-3.12782754569e-07
-2.14091630362e-06
-3.83114169329e-07
-2.09052641403e-06
-4.60730315365e-07
-2.03458223627e-06
-5.48094601468e-07
-1.97149337907e-06
-6.49834746206e-07
-1.89759209968e-06
-7.73688632728e-07
-1.80848666463e-06
-9.30360523807e-07
-1.70040307406e-06
-1.13033509063e-06
-1.56737674852e-06
-1.38004927238e-06
-1.39474132682e-06
-1.6799803009e-06
-1.16487003383e-06
-2.0081759716e-06
-9.40365353443e-07
-2.1960388037e-06
-7.98265456794e-07
-2.12703731621e-06
-6.42646763913e-07
-2.10691038248e-06
-4.32426143699e-07
-2.17387154284e-06
-1.70129747829e-07
-2.21865785248e-06
1.29216100986e-07
-2.14396442339e-06
5.99676808965e-07
-1.81788133912e-06
1.00562962166e-06
-1.46155432306e-06
1.21810004371e-06
-1.0747511389e-06
1.30283904757e-06
-7.09984097087e-07
1.27980548892e-06
-3.09683776333e-07
1.22528910285e-06
4.25461466506e-08
1.15300912253e-06
3.15882183628e-07
1.05901464811e-06
5.38762920713e-07
9.57434662402e-07
7.27322992618e-07
8.6210671407e-07
8.89469842752e-07
7.3650473706e-07
1.03793222608e-06
5.70998922648e-07
1.18801512119e-06
3.5418886746e-07
1.31780339702e-06
1.64080866931e-07
1.43723215892e-06
1.52132652562e-06
-1.47418068209e-07
8.61761013953e-07
-2.52480663134e-07
1.08009987833e-06
-1.81895545612e-07
8.04273670984e-07
-2.49174400733e-07
5.95480174061e-07
-4.30997555041e-07
9.26208216234e-07
-4.44490619775e-07
9.70801369963e-07
-5.08451418177e-07
1.02449250039e-06
-5.14350851773e-07
9.2894661805e-07
-5.649056541e-07
7.28137164869e-07
-5.41470379561e-07
6.31669928441e-07
-6.13817984057e-07
4.17844322132e-07
-7.04839915523e-07
4.26013058169e-07
-8.12017447791e-07
4.53792725077e-07
-9.67247280744e-07
6.52606888516e-07
-1.05013448563e-06
7.53409452874e-07
-1.0528772008e-06
5.78995062096e-07
-1.14789467876e-06
5.70086191782e-07
-1.2625330236e-06
6.79704875733e-07
-1.35239589393e-06
7.50735367952e-07
-1.4298696338e-06
7.49593056339e-07
-1.49554486086e-06
7.10907297063e-07
-1.55141533242e-06
6.55402387515e-07
-1.56877230532e-06
5.79555392818e-07
-1.57400893146e-06
5.07706015623e-07
-1.63685928673e-06
4.48285290194e-07
-1.64967046702e-06
3.53984413305e-07
-1.61916647624e-06
2.79933517433e-07
-1.62511804902e-06
2.54608675275e-07
-1.6875597797e-06
2.58430822881e-07
-1.79100189803e-06
2.817280444e-07
-1.87794649821e-06
2.48084532425e-07
-1.95608494608e-06
2.79775363133e-07
-2.06641365419e-06
3.92124582112e-07
-2.11364978566e-06
4.13074314288e-07
-2.14414280729e-06
3.87426341301e-07
-2.17431011081e-06
3.51609568493e-07
-2.20258322351e-06
3.13905358013e-07
-2.22716028924e-06
2.76554295766e-07
-2.24895818882e-06
2.38445265449e-07
-2.2695067496e-06
1.95625578004e-07
-2.28823369243e-06
1.45297612151e-07
-2.30310699144e-06
8.89203639172e-08
-2.31230970523e-06
2.99191734952e-08
-2.31458428853e-06
-2.9560535779e-08
-2.30895799331e-06
-8.92512922385e-08
-2.29459311469e-06
-1.50147828605e-07
-2.2709784453e-06
-2.13852176176e-07
-2.23829307102e-06
-2.81685219419e-07
-2.19752003486e-06
-3.54011111665e-07
-2.15037224126e-06
-4.30747978648e-07
-2.09889310225e-06
-5.127010758e-07
-2.04449568392e-06
-6.03006374216e-07
-1.98669896263e-06
-7.08199217256e-07
-1.92305722207e-06
-8.37926984925e-07
-1.85055605788e-06
-1.00342431248e-06
-1.76607277019e-06
-1.21540139536e-06
-1.65966235327e-06
-1.48690609401e-06
-1.50514328277e-06
-1.8350750132e-06
-1.29632457984e-06
-2.21753089105e-06
-1.16515131381e-06
-2.32807389087e-06
-1.08472406504e-06
-2.20815930765e-06
-9.00594544066e-07
-2.29156460837e-06
-6.10784887044e-07
-2.46412694376e-06
-2.30747742278e-07
-2.59902359271e-06
1.97062155137e-07
-2.57217759958e-06
7.37522997979e-07
-2.35889880096e-06
1.18705598654e-06
-1.91158270191e-06
1.39138565076e-06
-1.27972832121e-06
1.45444435977e-06
-7.73533388093e-07
1.42498393863e-06
-2.80551210537e-07
1.35528338655e-06
1.11399578008e-07
1.25230578064e-06
4.18833534798e-07
1.13527362187e-06