/*--------------------------------*- C++ -*----------------------------------*\
| =========                 |                                                 |
| \\      /  F ield         | OpenFOAM: The Open Source CFD Toolbox           |
|  \\    /   O peration     | Version:  v1806                                 |
|   \\  /    A nd           | Web:      www.OpenFOAM.com                      |
|    \\/     M anipulation  |                                                 |
\*---------------------------------------------------------------------------*/
FoamFile
{
    version     2.0;
    format      ascii;
    class       volVectorField;
    location    "153";
    object      U;
}
// * * * * * * * * * * * * * * * * * * * * * * * * * * * * * * * * * * * * * //

dimensions      [0 1 -1 0 0 0 0];


internalField   nonuniform List<vector> 
6400
(
(-7.87359427995e-05 -0.000106921992124 0)
(-0.000219355293598 -8.57391935601e-05 0)
(-0.000323569982277 -7.28873319054e-05 0)
(-0.000449086770833 -6.70429953923e-05 0)
(-0.000537017021094 -3.87941534492e-05 0)
(-0.000596477161134 -1.41130912219e-05 0)
(-0.00061225681505 -5.35423188453e-06 0)
(-0.000618533070777 -1.88501092458e-05 0)
(-0.000702175526946 -3.47130170031e-05 0)
(-0.000794020148367 -3.22384837221e-05 0)
(-0.000803876994087 -2.82996818542e-05 0)
(-0.000890786408089 -3.4963735766e-05 0)
(-0.000963675028185 -3.15775416513e-05 0)
(-0.00102069234387 -2.27855026089e-05 0)
(-0.00105221612842 -1.80162999358e-05 0)
(-0.00108803968278 -2.26429559289e-05 0)
(-0.00114430339866 -2.4102656046e-05 0)
(-0.00118671492256 -1.90868484443e-05 0)
(-0.0012062716141 -9.95092391125e-06 0)
(-0.00121544754626 -2.79252230945e-06 0)
(-0.00123447678848 -9.67168992455e-06 0)
(-0.00127186302333 -1.99715628919e-05 0)
(-0.00132172478798 -2.42930477368e-05 0)
(-0.00136775337272 -2.64780306472e-05 0)
(-0.00141397084725 -2.45916897276e-05 0)
(-0.00145640321888 -2.01235476824e-05 0)
(-0.00150086199125 -1.95730126245e-05 0)
(-0.00154203190248 -1.76108299131e-05 0)
(-0.0015728630856 -1.34274964647e-05 0)
(-0.00159510273735 -1.00032264659e-05 0)
(-0.00160811868302 -1.05823555562e-05 0)
(-0.00162721386382 -9.68292374559e-06 0)
(-0.00164613144926 -5.19238309947e-06 0)
(-0.00165525877488 -5.03600549634e-06 0)
(-0.00165895864857 -3.17593175408e-06 0)
(-0.00167498518377 -1.92573513155e-06 0)
(-0.00169177256147 -4.31156867377e-06 0)
(-0.00166880684559 -2.71968337375e-06 0)
(-0.00167798183018 2.68027032778e-07 0)
(-0.00170432742229 -4.31437178795e-06 0)
(-0.00173626885981 -2.63638155556e-05 0)
(-0.00176753090559 -3.42374527103e-05 0)
(-0.00179262446101 -1.04480004504e-05 0)
(-0.00179955970584 3.56931375419e-06 0)
(-0.00179016620778 9.02683535582e-06 0)
(-0.00177415170081 1.47668927684e-05 0)
(-0.00174920437423 1.92571303393e-05 0)
(-0.00171300293959 2.4489588451e-05 0)
(-0.00166849842973 2.69436023097e-05 0)
(-0.00162156521337 1.83847600603e-05 0)
(-0.00158295573582 8.29195791761e-07 0)
(-0.00159984615984 2.68146603733e-06 0)
(-0.00155015575035 4.67834413374e-05 0)
(-0.00147635102878 6.16748696037e-05 0)
(-0.00136474822101 6.88469340212e-05 0)
(-0.00117638021228 8.72552001242e-05 0)
(-0.00100352519757 7.28936097228e-05 0)
(-0.000878647725344 5.70675346631e-05 0)
(-0.000770713570275 6.64166411079e-05 0)
(-0.000581581793543 7.13066456151e-05 0)
(-0.00041535558672 7.3487688268e-05 0)
(-0.000233183709322 9.84078617994e-05 0)
(5.17665304996e-06 0.000129755417176 0)
(0.000254848405048 9.35313079122e-05 0)
(0.000382976283451 5.82921407373e-05 0)
(0.000463357046955 4.1946401824e-05 0)
(0.000528054088593 3.13205187093e-05 0)
(0.000590586551831 2.53945183075e-05 0)
(0.000650243118006 2.1098678036e-05 0)
(0.000690415866003 1.45006369779e-05 0)
(0.000716448793947 5.91183395896e-06 0)
(0.000709432172712 -4.90060048455e-06 0)
(0.000673486944202 -1.87307691783e-05 0)
(0.00065068450263 -3.70258254544e-05 0)
(0.000528993134145 -3.89229865769e-05 0)
(0.000490928699497 -4.16416116866e-05 0)
(0.000341590943009 -2.8683786368e-05 0)
(0.000366055684539 -4.72643427902e-05 0)
(0.000161998133621 -3.71108570494e-05 0)
(0.000121423338956 -7.22695321587e-05 0)
(-2.81582295394e-05 -0.000144425326909 0)
(-0.000121473805515 -0.000166243118082 0)
(-0.000213829367548 -0.000156571624377 0)
(-0.00027017606239 -0.000124509719716 0)
(-0.000405990705991 -0.000124102580761 0)
(-0.000549901261058 -8.7272559777e-05 0)
(-0.00063684593261 -4.73617234635e-05 0)
(-0.000689107635293 -6.92443559962e-05 0)
(-0.000742702691245 -0.000100237277755 0)
(-0.000805235185274 -9.74295822272e-05 0)
(-0.000865070220732 -9.20605151103e-05 0)
(-0.000918863824415 -9.52485145392e-05 0)
(-0.000967867983276 -8.41845726472e-05 0)
(-0.00101198139612 -6.68394805529e-05 0)
(-0.00105835216428 -5.80921040352e-05 0)
(-0.00110334085611 -7.62181823099e-05 0)
(-0.00114842817413 -8.05954890326e-05 0)
(-0.00117653342348 -3.88706954642e-05 0)
(-0.00113086531756 -1.11982081679e-05 0)
(-0.0011520026051 -8.4519444702e-06 0)
(-0.0011888108698 -3.35744437607e-05 0)
(-0.00124358607085 -7.28462916491e-05 0)
(-0.00132179632108 -8.71817722417e-05 0)
(-0.00138443025479 -7.6197342539e-05 0)
(-0.00139707385045 -6.80338571851e-05 0)
(-0.00145902687703 -6.66389334314e-05 0)
(-0.00151120061864 -6.07546493971e-05 0)
(-0.00154459236213 -5.01979940053e-05 0)
(-0.00157102917458 -3.92523938384e-05 0)
(-0.00159342190487 -3.02360386903e-05 0)
(-0.00161290514128 -2.77048622565e-05 0)
(-0.00160800568862 -2.33668162309e-05 0)
(-0.00162453371798 -9.37497341544e-06 0)
(-0.00162659096108 -1.19827519141e-05 0)
(-0.00161661382706 -1.66834988009e-05 0)
(-0.00166286455223 -3.81373025198e-06 0)
(-0.00165515816925 -9.27402758438e-06 0)
(-0.00163878319942 -1.85140253036e-05 0)
(-0.00166755503835 -1.4996214696e-05 0)
(-0.00172755087939 -1.32642673948e-05 0)
(-0.00176639989321 -7.59064969622e-06 0)
(-0.00155298459963 -3.29639129481e-07 0)
(-0.00149775091513 2.75393804488e-06 0)
(-0.00151085946828 4.83640017097e-06 0)
(-0.0015113163998 7.62429941796e-06 0)
(-0.00152942201858 1.29075121056e-05 0)
(-0.00155511231881 2.22076477627e-05 0)
(-0.00155990300334 3.37805824667e-05 0)
(-0.00157799539283 4.57791972288e-05 0)
(-0.00157408385204 5.35109591429e-05 0)
(-0.00151528228218 5.11021258573e-05 0)
(-0.00139064131603 5.07698670805e-05 0)
(-0.00127522081843 6.04693670306e-05 0)
(-0.00147435098115 0.000110463107092 0)
(-0.00133377116585 0.000170259758298 0)
(-0.00123121325752 0.000203752641424 0)
(-0.00121846263453 0.000211727024207 0)
(-0.00109230063582 0.000208768382913 0)
(-0.000933508456404 0.000237886387939 0)
(-0.000759917024468 0.000281857499294 0)
(-0.000555502493368 0.000324041545221 0)
(-0.000247249608155 0.000299600790264 0)
(-9.73159559415e-06 0.000382774971915 0)
(0.000243161378916 0.000291546988904 0)
(0.000376782860367 0.000184760167591 0)
(0.000440910015504 0.000115529339571 0)
(0.000496112257205 9.05423415346e-05 0)
(0.000583133338277 8.49094947722e-05 0)
(0.000647185395409 7.01722124739e-05 0)
(0.000699196772731 4.63168807232e-05 0)
(0.000717676275467 1.31148835617e-05 0)
(0.000703777804618 -2.40905823979e-05 0)
(0.000651330918423 -5.15344081494e-05 0)
(0.000643850593166 -8.29594250304e-05 0)
(0.000595402248288 -0.000104508741962 0)
(0.00053773917179 -0.000117782683573 0)
(0.000462192850305 -0.000116521763564 0)
(0.000379978105089 -0.000143180878287 0)
(0.000240732327082 -0.000168980560379 0)
(0.000113243731836 -0.00028835274017 0)
(-4.42915517258e-05 -0.000249018915357 0)
(-0.00012010829119 -0.000279268463949 0)
(-0.000184181118727 -0.000266540283994 -9.98417645121e-29)
(-0.00033333379763 -0.000283516220054 9.83588577275e-29)
(-0.000481612891679 -0.0002922066808 9.26519269648e-29)
(-0.000560769475247 -0.000234362570869 -8.60923108255e-29)
(-0.000610156233446 -0.000112995221118 8.83094917324e-29)
(-0.000665518563956 -0.000125786655407 -8.96943785553e-29)
(-0.000723858638514 -0.000159103534127 0)
(-0.000792030489836 -0.000165088421984 0)
(-0.000859821753074 -0.000155801974467 0)
(-0.000916390341042 -0.000144137204489 0)
(-0.000965711012613 -0.000127235325524 0)
(-0.00100793307422 -0.000114923330055 0)
(-0.00104920157733 -0.000102500817378 0)
(-0.00108870368425 -7.46034419358e-05 0)
(-0.000908471602813 -3.46379296122e-05 0)
(-0.000859856547011 -1.26114960069e-05 0)
(-0.000881444706065 -2.15022660536e-05 0)
(-0.000948406583625 -6.80443075304e-05 0)
(-0.00115607520444 -0.000129139080167 0)
(-0.001281607961 -0.000155680376949 0)
(-0.00129220689192 -0.000144538538743 0)
(-0.00135741287765 -0.000129129470729 0)
(-0.00142674585537 -0.00012034342533 0)
(-0.00146952864286 -0.000113495797501 0)
(-0.00150418291743 -9.71683237099e-05 0)
(-0.00153744615859 -7.89776355111e-05 0)
(-0.00156409424686 -6.24821708468e-05 0)
(-0.00157891189041 -4.98378434329e-05 -2.08247380585e-28)
(-0.00160603881756 -3.75379509356e-05 2.0293983817e-28)
(-0.00158449854421 -2.78819050183e-05 0)
(-0.00158585269599 -1.4436895938e-05 0)
(-0.00163582511455 2.15811496737e-06 0)
(-0.00153516045573 -1.60828184227e-05 0)
(-0.0015733680672 -2.41493726124e-05 0)
(-0.00166194600271 -1.0464292092e-05 0)
(-0.00156854862585 -2.84486676164e-05 0)
(-0.00162478043863 -5.85477750872e-05 0)
(-0.0017221640484 -5.20823953231e-05 0)
(-0.00178118375979 6.47570744878e-06 0)
(-0.00179508400292 4.34657501787e-05 0)
(-0.00180179948082 2.39430432582e-05 0)
(-0.00180178535045 9.62988359511e-06 0)
(-0.00179265523564 8.24094735139e-06 0)
(-0.00177745532043 1.23260824838e-05 0)
(-0.00175755148011 2.46507474195e-05 0)
(-0.00173359116226 4.02659707948e-05 0)
(-0.00170613682272 5.9624561029e-05 0)
(-0.00167619753804 8.76742224543e-05 0)
(-0.00164561757111 0.000116713782482 0)
(-0.00160992064772 0.000128869425878 0)
(-0.00155302769099 0.000112805852443 0)
(-0.0014441396516 0.000156669466979 0)
(-0.00131660412894 0.000225763657834 0)
(-0.00129509295991 0.000266817381946 0)
(-0.00121692347999 0.000300452111625 0)
(-0.00108425430853 0.000346274554875 0)
(-0.000923671182151 0.000402337316184 0)
(-0.000741250135868 0.000470122676055 0)
(-0.000534982354817 0.000543323617904 0)
(-0.00030688766683 0.000619484104225 0)
(-4.55554749899e-05 0.000678169337891 0)
(0.000184090646881 0.000466998610795 0)
(0.00031215240008 0.00028005408273 0)
(0.000420738991611 0.00020252585117 0)
(0.000515185869549 0.000171250445507 0)
(0.000581823720849 0.000147313770974 0)
(0.000636380532976 0.000114360115702 0)
(0.000675081160803 6.98622478607e-05 0)
(0.000689489837488 1.91589191366e-05 0)
(0.000691397815043 -2.70781497234e-05 0)
(0.000707153907481 -6.55185614288e-05 0)
(0.000698866548743 -0.000116862700662 0)
(0.000638231122969 -0.000168353606538 0)
(0.000556991478812 -0.000194466017816 0)
(0.000467294385776 -0.0002076254557 0)
(0.000375717101884 -0.000268505446895 0)
(0.000266077713069 -0.000393301252654 0)
(7.09560429189e-05 -0.000410275194827 0)
(-4.57760087302e-05 -0.000383174294927 0)
(-5.09334654691e-05 -0.000245381469332 0)
(-0.000154158764189 -0.000413770508225 0)
(-0.000303811074793 -0.000432049207327 0)
(-0.000406602441183 -0.000359815356083 0)
(-0.00020560676682 -0.000121455037616 0)
(-0.000252633452073 -0.000121228779665 0)
(-0.000508737674346 -0.000246036305129 0)
(-0.00067190531108 -0.000276420484656 0)
(-0.000759633278761 -0.000249647487486 0)
(-0.00084524908115 -0.000228662906828 0)
(-0.000911741794418 -0.000203578532427 0)
(-0.000962686891151 -0.000174575716059 0)
(-0.000986447089406 -0.000122121406937 0)
(-0.000874580982478 -5.09801039117e-05 0)
(-0.000798098076807 -6.63698154129e-06 0)
(-0.000788970675507 3.74568803789e-07 0)
(-0.000844133461768 -4.36346709851e-05 0)
(-0.00099460573048 -0.000120987228588 0)
(-0.00118270071335 -0.00021556648267 0)
(-0.00122280074935 -0.000238817137006 0)
(-0.00126797097024 -0.000218735573436 0)
(-0.00133031777524 -0.000201260218657 0)
(-0.00138180041975 -0.000188563253042 0)
(-0.00142380985439 -0.000170399858383 0)
(-0.00146011271211 -0.000149320625885 0)
(-0.0014894731572 -0.000128516804517 0)
(-0.00153097085274 -0.000106761731212 0)
(-0.00154321007695 -8.46906757785e-05 0)
(-0.00158202198624 -6.54094736839e-05 0)
(-0.00156047877735 -4.65461952988e-05 0)
(-0.00160283929333 -2.51577136258e-05 0)
(-0.00153451563326 -3.74297321542e-07 0)
(-0.00153871113263 3.05933841482e-06 0)
(-0.00162365954734 -1.18668647143e-05 0)
(-0.00153736509732 -4.08656726282e-05 0)
(-0.00161690850202 -5.34516579572e-05 0)
(-0.00172464062498 -7.1572257619e-05 0)
(-0.00175164821322 -0.000101448189514 0)
(-0.00176097514934 -8.5443027643e-05 0)
(-0.00177533824205 -3.18802594434e-05 0)
(-0.00178968366287 8.77657150423e-06 0)
(-0.00179874693095 1.6904003687e-05 0)
(-0.0017999167595 1.70895746662e-05 0)
(-0.00179258647785 2.20260383575e-05 0)
(-0.0017790787749 3.22792373998e-05 2.16835922207e-28)
(-0.00176088314854 4.77938691264e-05 -2.18292347184e-28)
(-0.00173862358636 6.70184261251e-05 0)
(-0.00171260623715 8.99529268689e-05 0)
(-0.00168300425135 0.000116955289807 0)
(-0.00164907380938 0.000144404070224 0)
(-0.00160596324169 0.000169426650637 0)
(-0.00154645691498 0.000200371233987 0)
(-0.00147122606222 0.000253389256596 0)
(-0.00139300409914 0.000302360383638 0)
(-0.00131206436848 0.000347698008069 0)
(-0.0012108481924 0.000416408066046 0)
(-0.00107673509214 0.000496866004316 3.99514424202e-28)
(-0.000910361579051 0.00058303054654 -4.45895170616e-28)
(-0.000718101758558 0.000673720828855 0)
(-0.000507400630427 0.000759264128491 0)
(-0.000291106082212 0.000829795373081 0)
(-9.66002906573e-05 0.000846854438845 0)
(0.000115719815684 0.000667906261502 0)
(0.000308747340466 0.000447593037978 0)
(0.000414661455952 0.000303712857806 0)
(0.000499141228715 0.000242266509361 0)
(0.000576849391362 0.000205196695512 0)
(0.00063945161589 0.000159845310229 0)
(0.000698038013183 0.000103533857132 0)
(0.00073984065811 4.37780432128e-05 0)
(0.000766040340191 -1.37549038451e-05 0)
(0.000752076903256 -8.67854525553e-05 0)
(0.000664372469131 -0.00016702462857 0)
(0.000592738743681 -0.000234362458991 0)
(0.000520941156161 -0.000289411832712 0)
(0.000414911376159 -0.000323310023866 0)
(0.000255997438695 -0.000320730144068 0)
(0.000190242759586 -0.000458428759252 0)
(6.52239278149e-05 -0.000554352668182 0)
(-1.83574589071e-06 -0.000371467763501 0)
(-2.23710520689e-05 -0.000300239163056 0)
(-0.00014644369042 -0.000562123519771 0)
(-0.000257478281888 -0.000513708222521 0)
(-0.00024773574494 -0.000304814905529 0)
(-0.000186750570203 -0.00015977209239 0)
(-0.000325635390492 -0.000278356771167 0)
(-0.000552972694784 -0.000439789180078 0)
(-0.000630727878422 -0.000397071373303 0)
(-0.000726913999176 -0.000344721059089 0)
(-0.000815113839372 -0.000316840787757 0)
(-0.000883756740127 -0.00026707049826 0)
(-0.000856654117984 -0.000155267954132 0)
(-0.000743402605725 -5.3817585639e-05 0)
(-0.000756344678909 -1.42948369805e-05 0)
(-0.000805659614025 -2.2879578474e-05 0)
(-0.000904555523655 -7.71224048098e-05 0)
(-0.00105148354215 -0.000174392941119 0)
(-0.00116763079188 -0.000257332948249 0)
(-0.00116792311788 -0.000268586408798 0)
(-0.0012122155523 -0.000274259863947 0)
(-0.00128177685016 -0.000276683189808 0)
(-0.00133126622695 -0.000258549586976 0)
(-0.00137674931093 -0.000233130810318 0)
(-0.00141503864164 -0.00020753004336 0)
(-0.00144484550899 -0.000184786772433 0)
(-0.00149008551449 -0.000159431383492 0)
(-0.00149416704914 -0.000131585083563 0)
(-0.00155082548372 -0.000105571889183 0)
(-0.00151764160538 -7.63655157532e-05 0)
(-0.00158882332168 -5.03468075287e-05 -1.96986598912e-28)
(-0.00148431916715 -2.15417143684e-05 1.75896945863e-28)
(-0.00156028911682 -6.77291243438e-06 0)
(-0.00161587275416 -1.96196119242e-06 0)
(-0.00154449080364 -2.69906381787e-05 0)
(-0.00165874712876 -7.91054315764e-05 0)
(-0.00170528653852 -0.000123288279267 0)
(-0.00174024721713 -0.000126544870473 0)
(-0.00175778549526 -0.00011311176039 0)
(-0.00176647285751 -8.64989732589e-05 0)
(-0.00177893807671 -4.52299801921e-05 0)
(-0.00179220063838 -8.81387121337e-06 0)
(-0.00180063923584 1.01013616917e-05 0)
(-0.00180191514275 2.09148233993e-05 0)
(-0.00179572131099 3.27723456156e-05 0)
(-0.00178374192311 4.8288528897e-05 0)
(-0.00176705282764 6.78777738983e-05 0)
(-0.00174610660016 9.1050436565e-05 0)
(-0.00172090051478 0.000118027910431 0)
(-0.00169099387815 0.000149203181906 0)
(-0.00165514759815 0.000183749966687 0)
(-0.0016102113526 0.000221689870791 0)
(-0.00155292627075 0.000266439578047 0)
(-0.00148395716488 0.000321057219754 0)
(-0.00140733292164 0.000379247209263 0)
(-0.00132065950351 0.000449383241741 0)
(-0.00121262227842 0.000543135763003 0)
(-0.00107301499961 0.000653739537756 0)
(-0.000899643464625 0.000768459641974 0)
(-0.000701080116993 0.000876854120802 0)
(-0.000492163009218 0.000967980714055 0)
(-0.000292978626831 0.00103092269193 0)
(-0.00013877760675 0.00101637733553 0)
(6.99406292245e-05 0.000894543488549 0)
(0.000300980875294 0.00064136875063 0)
(0.000425528024648 0.000429109089938 0)
(0.000518112821191 0.000330974461137 0)
(0.000593989019892 0.000273105060874 0)
(0.000658078833344 0.000215664216514 0)
(0.000725362095446 0.000153128298283 0)
(0.00079311033539 8.07724860903e-05 0)
(0.000804000430585 -2.36193545948e-05 0)
(0.000714900178949 -0.000140772001234 0)
(0.00064849950742 -0.000237498519865 0)
(0.000585196857436 -0.000321604733203 0)
(0.000502105710101 -0.000399384744802 0)
(0.000373462923546 -0.000419960109704 0)
(0.000254104477776 -0.000434042184626 0)
(0.000175571798745 -0.000599505386376 0)
(4.99310011953e-05 -0.000651425424461 0)
(2.51807736168e-06 -0.000342154903461 0)
(-3.16461460538e-05 -0.000368703953459 0)
(-0.000151455020581 -0.000640337372644 0)
(-0.000202094764269 -0.000500617613257 0)
(-0.000140912436905 -0.000227176093919 0)
(-0.000189749542149 -0.000232570375334 0)
(-0.000445049260547 -0.000488742946591 0)
(-0.000543843948488 -0.000535186685364 0)
(-0.000605099557038 -0.000481644300553 0)
(-0.000684909351413 -0.000434033034033 0)
(-0.000761096455025 -0.000363325268928 0)
(-0.000659217640466 -0.000212576568519 0)
(-0.000586155992477 -9.12505356748e-05 0)
(-0.000637246826711 -5.81233045879e-05 0)
(-0.000700444712098 -7.17708259138e-05 0)
(-0.000834573196012 -0.000133160302378 0)
(-0.00100087771363 -0.000222880497798 0)
(-0.0011175613667 -0.000279246303626 0)
(-0.00108870612687 -0.00027095296836 0)
(-0.00114741041019 -0.000301837660045 0)
(-0.00123163095616 -0.000337869400101 0)
(-0.00127928710636 -0.000331143864336 0)
(-0.00132296296637 -0.000305723926113 0)
(-0.00136053399505 -0.000276514720562 0)
(-0.00141228358134 -0.000249095384394 0)
(-0.00144287705351 -0.00021208240215 0)
(-0.00142359887869 -0.000182023910346 0)
(-0.00151352009398 -0.000158082765005 0)
(-0.0014473201187 -0.000115507132719 0)
(-0.0015578374606 -8.00354270784e-05 0)
(-0.00140493078838 -3.75181703901e-05 0)
(-0.00154168442701 -3.01717849163e-05 0)
(-0.00142008757664 -2.78173576997e-05 0)
(-0.00153029002034 -3.73967785296e-05 0)
(-0.00164571340864 -8.49046587984e-05 0)
(-0.00169961753264 -0.000144303154059 0)
(-0.00172726353653 -0.0001577650621 0)
(-0.00174699184933 -0.000146709139951 0)
(-0.00176029570953 -0.00012460020867 0)
(-0.00177178855192 -9.49650250235e-05 0)
(-0.00178413993879 -5.81368095414e-05 0)
(-0.00179617065953 -2.27952742077e-05 0)
(-0.00180420986715 3.33549525462e-06 0)
(-0.0018056813448 2.30749440089e-05 0)
(-0.00180062029294 4.19715121211e-05 0)
(-0.00178988246694 6.29150366438e-05 0)
(-0.0017744607575 8.69366382208e-05 0)
(-0.00175447535004 0.000114386069673 0)
(-0.00172950572511 0.000145937266699 0)
(-0.00169900832476 0.000182383055562 0)
(-0.00166206937211 0.000224162132399 0)
(-0.00161692388604 0.000271989798664 0)
(-0.00156198447568 0.000327144998509 0)
(-0.00149709615811 0.000390329444699 0)
(-0.00142197985666 0.000462886355386 0)
(-0.00133213698303 0.000554769941613 0)
(-0.00121859012736 0.000673939458666 0)
(-0.00107487838348 0.000813084535267 0)
(-0.000902257834569 0.000955954554655 0)
(-0.000704833084269 0.00107787495833 0)
(-0.000506663484965 0.00116435754384 0)
(-0.000330428401439 0.00118230448781 0)
(-0.000157405357518 0.00105944543494 0)
(3.5293421343e-05 0.00117529207731 0)
(0.00025768696529 0.000813174230271 0)
(0.000396444538275 0.000548608122863 0)
(0.000517154751447 0.000424418889837 0)
(0.000618297097134 0.000348792108476 0)
(0.000697277006661 0.000281972070163 0)
(0.000793538070349 0.000215379762949 0)
(0.000857853461004 9.87324829517e-05 0)
(0.000789204640729 -6.59033930934e-05 0)
(0.000710905691172 -0.000199887821893 0)
(0.000667349193652 -0.000308652695082 0)
(0.000593426405816 -0.000411197514591 0)
(0.000510876528253 -0.000508316639601 0)
(0.000372646332479 -0.00050914182537 0)
(0.000265849449318 -0.000538825503097 0)
(0.000181690014812 -0.000714542430239 0)
(5.56740211913e-05 -0.000750621448939 0)
(-1.18742184386e-05 -0.000371411877854 0)
(-8.36940855157e-05 -0.000494091590629 0)
(-0.000207081788768 -0.000698242165674 0)
(-0.000220406519045 -0.000627310470591 0)
(-0.000131777404195 -0.000280733564158 0)
(-0.000290556915996 -0.000432573616917 0)
(-0.000486733673242 -0.000621045666262 0)
(-0.000524360553505 -0.000596543269285 0)
(-0.000585422715408 -0.000541389537531 0)
(-0.000607918856406 -0.000474849053451 0)
(-0.000714595805452 -0.000378230266575 4.0401605677e-28)
(-0.000505498461747 -0.000145551296616 -2.11518250416e-28)
(-0.000592951590144 -0.000116766882455 0)
(-0.000627038771207 -0.000121510100685 0)
(-0.000738934300172 -0.000183057557507 0)
(-0.000920031142859 -0.000294924192599 0)
(-0.00104887576531 -0.000341548033267 0)
(-0.000989372003599 -0.000285823856955 0)
(-0.00105695864632 -0.000310687296522 0)
(-0.00117151781501 -0.000380506426149 0)
(-0.00121885760825 -0.000397236798829 0)
(-0.00127037817495 -0.000379550473127 0)
(-0.00131650480629 -0.000351017997307 0)
(-0.0013578056705 -0.000315797346783 0)
(-0.00137685826842 -0.000271971452848 0)
(-0.00136927385862 -0.000224090717327 0)
(-0.00144665821218 -0.000201600942538 0)
(-0.00135929347495 -0.000168270741294 0)
(-0.00150482494937 -0.000130495349487 0)
(-0.00134023754095 -5.49055720129e-05 0)
(-0.00148390045079 -4.408517784e-05 0)
(-0.00138626893678 -5.20176127101e-05 1.63810730756e-28)
(-0.00150812347472 -5.90303093924e-05 -1.80725776828e-28)
(-0.00153026379932 -0.000115107309605 0)
(-0.00168782146531 -0.000176153067495 0)
(-0.00171698124291 -0.000188998609032 0)
(-0.00173386963168 -0.000179964068173 0)
(-0.00174891062742 -0.000161363004464 0)
(-0.00176426406976 -0.000136354433324 0)
(-0.00177819893029 -0.000105829351638 0)
(-0.00179062362636 -7.03122253561e-05 0)
(-0.00180205802907 -3.44011548786e-05 0)
(-0.00180979215861 -2.92949007822e-06 0)
(-0.00181157605692 2.41635176552e-05 0)
(-0.00180732235204 4.97559122024e-05 0)
(-0.00179767258209 7.62666807186e-05 0)
(-0.00178320852869 0.000105128309444 0)
(-0.0017636598046 0.000137378146192 0)
(-0.00173843684919 0.000174089814636 0)
(-0.00170724738511 0.000216307902346 0)
(-0.00166974650018 0.000264902128419 0)
(-0.00162508863614 0.000320681595558 0)
(-0.0015723827485 0.000384532023918 0)
(-0.00151064784271 0.00045823687647 0)
(-0.00143747828607 0.000547156820523 0)
(-0.00134751971295 0.00066134418606 0)
(-0.00123359350214 0.000805601932958 0)
(-0.00109135765655 0.000970467343457 0)
(-0.000921420338652 0.00113510395424 0)
(-0.000732963633807 0.0012701837383 0)
(-0.000548927967992 0.0013368836944 0)
(-0.000390525752848 0.0013365262846 0)
(-0.000225703408332 0.00136497123892 0)
(-5.78643117809e-05 0.0013470961988 0)
(0.000182195526114 0.000989064566027 0)
(0.000368157173469 0.00068055405037 0)
(0.000540649059457 0.00056263087508 0)
(0.000687027796163 0.000470755658859 0)
(0.000796883522805 0.000379902729605 0)
(0.000885077083348 0.000263805086867 0)
(0.00088445104841 7.44483038621e-05 0)
(0.000796065528685 -0.000115481534789 0)
(0.000756229769556 -0.000257930060474 0)
(0.000701479668383 -0.000380479739927 0)
(0.000629623133094 -0.000504767205184 0)
(0.000527388524031 -0.000587643776326 0)
(0.00041898298051 -0.000627452253607 0)
(0.000285137453047 -0.000650250156985 0)
(0.000191854790401 -0.000820072540543 0)
(6.66479646439e-05 -0.000882446937111 0)
(-2.57486232175e-05 -0.000434754355974 0)
(-0.000127775590642 -0.000626098313828 0)
(-0.000238522096203 -0.000716659306484 0)
(-0.000129217978886 -0.000380165943083 0)
(-0.000137995422788 -0.000354137065019 0)
(-0.000366063749997 -0.000644624479737 0)
(-0.000450853982168 -0.00068326532149 0)
(-0.000512352989091 -0.000656960553915 0)
(-0.000530022101393 -0.000566858367727 0)
(-0.000587937143913 -0.000502381309651 0)
(-0.000440825184613 -0.000257038402073 0)
(-0.000510916104578 -0.00017390980704 0)
(-0.000579039729766 -0.000170664025692 0)
(-0.000626439579967 -0.000204234080025 0)
(-0.000815689485838 -0.000332083489117 0)
(-0.000970955778251 -0.000413614563651 0)
(-0.000905470245949 -0.000338894390647 0)
(-0.000953598577601 -0.000327240807593 0)
(-0.0010845184101 -0.000405087319069 0)
(-0.00116377541197 -0.000451623758383 0)
(-0.00120195031158 -0.000446745690908 0)
(-0.00124272442591 -0.000424558790255 0)
(-0.00130129424382 -0.000400392998922 0)
(-0.00133897599154 -0.000357456731551 0)
(-0.00139281810678 -0.000291245105922 0)
(-0.00133713662833 -0.000245619704331 0)
(-0.00144274271106 -0.000213576910124 0)
(-0.00139436837821 -0.000166450494626 0)
(-0.00134638926469 -0.00011832874915 0)
(-0.0013743585705 -8.62615733221e-05 0)
(-0.00153451448936 -7.69977296391e-05 0)
(-0.00145537070623 -6.23689965561e-05 0)
(-0.00144644803695 -0.000122564150795 0)
(-0.00166664475111 -0.000211971760834 0)
(-0.00169320901464 -0.000240834560428 0)
(-0.00171866907949 -0.000221036254241 0)
(-0.00173676230358 -0.00019847292878 0)
(-0.00175222926279 -0.000176188555581 0)
(-0.00176913252518 -0.000150180632597 0)
(-0.00178524085393 -0.000118693954998 0)
(-0.00179859144688 -8.25500464163e-05 0)
(-0.00180962755345 -4.48903825211e-05 0)
(-0.00181728746632 -8.88407489692e-06 0)
(-0.00181963529883 2.4538815701e-05 0)
(-0.00181617508518 5.6485090204e-05 2.09936885315e-28)
(-0.00180739039176 8.87048435272e-05 -2.09328444276e-28)
(-0.00179344652394 0.000122895621138 0)
(-0.00177375545258 0.000160536051834 0)
(-0.00174776146433 0.000202822945296 0)
(-0.00171563671582 0.000250779849549 0)
(-0.00167763944693 0.000305395197994 0)
(-0.00163363876345 0.000367751153786 0)
(-0.00158322967747 0.000439487211897 0)
(-0.0015250101101 0.000524213999186 0)
(-0.00145557856869 0.000629256794485 0)
(-0.00136966195956 0.000763839567758 0)
(-0.00126161774674 0.000930781147725 0)
(-0.00112748162777 0.00112070503238 0)
(-0.000965645463765 0.00131158854538 0)
(-0.000781166806771 0.00145450435789 0)
(-0.000602572582748 0.00149546491101 0)
(-0.000455555173362 0.00149678527049 0)
(-0.000311262522831 0.00150001228847 0)
(-0.000166993980752 0.00148014368485 0)
(7.7125431678e-05 0.00139708147645 0)
(0.000346160990036 0.00087700471644 0)
(0.00057252158526 0.000735671836906 0)
(0.00076475883382 0.000612190674663 0)
(0.000884382936064 0.000463429947286 0)
(0.000945749116907 0.00027320525692 0)
(0.000913242037996 3.64219621996e-05 0)
(0.000853011012841 -0.000161466503745 0)
(0.000818317460733 -0.000315173471983 0)
(0.000753903783703 -0.000455627750344 0)
(0.00068099021241 -0.000590727825663 0)
(0.000574012843354 -0.000675449543356 0)
(0.000477787738321 -0.000755716887174 0)
(0.000324680632834 -0.000798919705851 0)
(0.00019686384053 -0.000935504214202 0)
(6.9537493812e-05 -0.00103554450599 0)
(-3.80773566595e-05 -0.000519049830801 0)
(-0.000154585524654 -0.000742622761845 0)
(-0.000198861620119 -0.000724480543972 0)
(-0.000124712870298 -0.000416441295588 0)
(-0.000207786709356 -0.000486349641802 0)
(-0.000396234651988 -0.000752889414604 0)
(-0.000412593020152 -0.000739690183676 0)
(-0.000500669615959 -0.000711142372485 0)
(-0.000441715614349 -0.000539569369453 0)
(-0.000605572076224 -0.000562249249056 0)
(-0.000431511923316 -0.000275664047048 0)
(-0.000530052390314 -0.000238879624491 0)
(-0.000575638804288 -0.000238647165976 0)
(-0.000686228278846 -0.00033037543594 0)
(-0.000869879178983 -0.00047871610685 0)
(-0.000955843960774 -0.000470756983769 0)
(-0.000882198711547 -0.000366158348937 0)
(-0.000976273453563 -0.000411356013386 0)
(-0.00108319818848 -0.000490615292249 0)
(-0.00114144363918 -0.000510034339476 0)
(-0.00119233172254 -0.000493953749221 0)
(-0.00121694197162 -0.000462225589781 0)
(-0.0012650665838 -0.000434350041817 0)
(-0.00127255516423 -0.000385171649475 0)
(-0.0012613567009 -0.00029418570078 0)
(-0.00138086297223 -0.000265978141112 0)
(-0.00124248825009 -0.000222242306717 0)
(-0.00147990907491 -0.000185416730463 0)
(-0.00131652937088 -0.000138474635175 0)
(-0.0015341897279 -0.000140994330648 0)
(-0.00136313293926 -0.00010204547132 0)
(-0.00157024941696 -0.000111711674327 0)
(-0.00161701640985 -0.000200762201204 2.08147558454e-28)
(-0.00167729576742 -0.000277828840379 -2.22661306699e-28)
(-0.0016980326279 -0.000272629863839 0)
(-0.00171931130403 -0.000245575944467 0)
(-0.00174030187319 -0.000218377305896 0)
(-0.00175763519267 -0.000193040390919 0)
(-0.00177512392917 -0.000165744722808 0)
(-0.00179227800369 -0.000133206633598 0)
(-0.00180713489429 -9.54935778875e-05 0)
(-0.00181892534804 -5.51973220824e-05 0)
(-0.00182689632632 -1.49029971561e-05 0)
(-0.00182993019065 2.42115371764e-05 0)
(-0.00182752467957 6.23530063012e-05 0)
(-0.00181946096954 0.000100646357664 0)
(-0.00180545053113 0.000140768919964 0)
(-0.00178493323441 0.000184386624325 0)
(-0.0017576204556 0.000232577138528 0)
(-0.00172406298474 0.000286049283166 0)
(-0.0016851803647 0.000345771522636 0)
(-0.00164170185528 0.000413359511179 0)
(-0.00159390227459 0.000491726808242 0)
(-0.00154043807036 0.000586214696394 0)
(-0.00147766679133 0.000704986546617 0)
(-0.00140056935592 0.000856247251561 0)
(-0.00130386082134 0.00104263303117 0)
(-0.00118258485178 0.00125743080719 0)
(-0.00103451364334 0.00147875171552 0)
(-0.000864381298995 0.00163530216255 0)
(-0.000707769841086 0.00164604835957 0)
(-0.000580142684221 0.00162598707844 0)
(-0.000433750809773 0.00164917637164 0)
(-0.000245855026547 0.0016683450457 0)
(-2.80484554638e-05 0.00160067627209 0)
(0.000317777258301 0.00127538566957 0)
(0.000608849559475 0.000887512776855 0)