/*--------------------------------*- C++ -*----------------------------------*\
| =========                 |                                                 |
| \\      /  F ield         | OpenFOAM: The Open Source CFD Toolbox           |
|  \\    /   O peration     | Version:  v1806                                 |
|   \\  /    A nd           | Web:      www.OpenFOAM.com                      |
|    \\/     M anipulation  |                                                 |
\*---------------------------------------------------------------------------*/
FoamFile
{
    version     2.0;
    format      ascii;
    class       volScalarField;
    location    "372";
    object      p;
}
// * * * * * * * * * * * * * * * * * * * * * * * * * * * * * * * * * * * * * //

dimensions      [0 2 -2 0 0 0 0];


internalField   nonuniform List<scalar> 
6400
(
0.155001097317
0.155003365846
0.155009782443
0.155022118425
0.155039951722
0.155063077802
0.155091554172
0.155126425055
0.155167938835
0.155216508717
0.155277340433
0.155353119033
0.155440788104
0.155540394748
0.155653726094
0.155782861455
0.155928618412
0.156090477738
0.156266852139
0.156453093319
0.156643314215
0.156837704429
0.157041950511
0.15726253956
0.157503875656
0.157765785404
0.158044887028
0.158338782414
0.15864727919
0.158971128527
0.159310941448
0.159665169439
0.160028159318
0.160394309943
0.160761554326
0.16112653768
0.161488631904
0.161854959673
0.162224653106
0.162587671625
0.162945341753
0.163311931447
0.163695125591
0.164087385025
0.164479785744
0.164867001794
0.16524503398
0.165611436987
0.165964131737
0.166301443632
0.166622432542
0.166923201439
0.167197941309
0.167438543796
0.16764514072
0.167825529245
0.167977732319
0.168094306548
0.168175048347
0.168227745508
0.16825787125
0.168268977732
0.168267377425
0.168252213892
0.168214369326
0.16813650221
0.168016637556
0.16787802182
0.167745063995
0.167625132597
0.167515917215
0.167412047237
0.167309913179
0.167214507469
0.167125154188
0.167044631741
0.166975214657
0.166928459268
0.166897765222
0.166884737339
0.154997698047
0.155000079567
0.155005798242
0.155017865312
0.155037113993
0.155061631868
0.155090589099
0.155123961561
0.155163738815
0.155212294784
0.155272827068
0.155347466764
0.155435393727
0.155535980712
0.155649635138
0.155777542595
0.155922687528
0.156085298225
0.156263280576
0.1564506458
0.156639141804
0.156831323195
0.157034726288
0.157254934539
0.157496586518
0.157759352072
0.158038687989
0.158333153108
0.158642688202
0.158967392436
0.159307201268
0.159661826281
0.16002602992
0.160392325132
0.16075990143
0.161125207552
0.161486913775
0.161853638178
0.162224302706
0.162587280169
0.16294217263
0.16330810501
0.163695736823
0.164091135815
0.164484882198
0.164873539671
0.165252886902
0.165620921546
0.165974985805
0.166311787939
0.16663057377
0.166932341951
0.1672139072
0.167456638156
0.167664450571
0.167848208416
0.167998415851
0.16811130611
0.168191074622
0.168242720185
0.168270972261
0.168281740934
0.168278880303
0.168262909297
0.168224796913
0.168147202595
0.168024680703
0.16788308476
0.167747644186
0.167625211383
0.167513754117
0.167407418532
0.167301933034
0.167202170788
0.167111404296
0.167031112444
0.166965037342
0.166918242802
0.166887669172
0.166877247253
0.154988291731
0.154992307803
0.154997326113
0.155008371578
0.155027028481
0.155054697885
0.155086544589
0.155118958093
0.155156531098
0.15520386327
0.155263719611
0.155337770519
0.15542587021
0.155527167558
0.15564101079
0.155765732318
0.155908934627
0.156077463975
0.156259043946
0.156445444963
0.156629845453
0.156816154716
0.157017943084
0.157240582439
0.157482974585
0.157745287382
0.158025928236
0.158322376618
0.158633592647
0.158959742989
0.15930045468
0.159656161839
0.160022977113
0.160388832229
0.160754945291
0.161122751853
0.161484130623
0.161848975366
0.162220388965
0.162585859403
0.162947164018
0.163317488228
0.163703073411
0.164096996233
0.164491333239
0.16488127649
0.165263079313
0.165633958248
0.165991215187
0.166332366662
0.166655851593
0.166959543726
0.167237791551
0.167483889137
0.167700507347
0.167885788527
0.16803346269
0.168144590343
0.168222775534
0.168272454266
0.16829899327
0.168308107359
0.168302899215
0.168286630842
0.168246928987
0.168165061305
0.168042003121
0.167898096563
0.167755607584
0.167625793497
0.167507415643
0.167394636414
0.167285958138
0.167184535469
0.167091400815
0.167010111351
0.166945326642
0.166898538912
0.166868780772
0.166857748955
0.154975357738
0.15497937487
0.154983310601
0.154993433121
0.155009830314
0.155037367989
0.155078824148
0.155111204684
0.155145828331
0.15519099782
0.15524979099
0.155323521382
0.15541205334
0.155513129163
0.155627261511
0.15575761344
0.155906179083
0.1560725258
0.156246693553
0.156421558601
0.156600992577
0.156790626111
0.156994671967
0.157217553065
0.157460989715
0.157724867903
0.158007582436
0.158306394436
0.158620083199
0.158948139856
0.159291296508
0.159648762322
0.160017220252
0.160387661078
0.16075078014
0.161114372785
0.161479935324
0.16184400338
0.16221078521
0.162579043245
0.162948337448
0.163324676236
0.163711943319
0.164106537458
0.16450248318
0.164894953375
0.16528011117
0.165654886146
0.166016527531
0.166362517511
0.166690560438
0.166997680874
0.16727941839
0.167531631935
0.167752743268
0.167938912869
0.168086625199
0.168196917288
0.168273469401
0.168321031584
0.168345020691
0.168350580258
0.168342353193
0.168324686606
0.168284016506
0.16820168346
0.168072687953
0.167919298054
0.167765250632
0.167624315172
0.167498001093
0.167381117498
0.167269414407
0.167160318543
0.167058827513
0.166975589435
0.166912477031
0.166861580457
0.166825890451
0.166811030094
0.154955269032
0.154955716391
0.154960595909
0.154970969685
0.154989228923
0.155015129249
0.155052549282
0.155088772862
0.15512598217
0.155171901714
0.155229981383
0.155303656933
0.155393183713
0.155499980997
0.155622216888
0.155754206156
0.155897334849
0.156051589766
0.156214771225
0.156386606176
0.156567351032
0.156758001987
0.156963191866
0.157187468218
0.157432402677
0.157698279396
0.157983168883
0.158285019874
0.158601765761
0.15893326448
0.159278758474
0.159640706299
0.160014603555
0.160381754767
0.160744003294
0.161105410853
0.161466233666
0.161830991373
0.162200379874
0.162573169744
0.162949270318
0.163331634624
0.163722371032
0.164119369621
0.164518153195
0.164914241602
0.165303771648
0.165683527231
0.166050707156
0.166402710136
0.166736855885
0.16704987399
0.167337759829
0.16759659626
0.167822760963
0.168011739973
0.168160775651
0.168271216637
0.168346998245
0.168393073443
0.168414759281
0.16841710754
0.168404691277
0.168382475052
0.168335764264
0.168249543905
0.1681150114
0.16795036925
0.167780654329
0.167625001054
0.167489162503
0.167365315943
0.167241445652
0.167117253615
0.167007876707
0.166921078674
0.16685047431
0.166785147221
0.166743081863
0.166727597843
0.154917844989
0.154917413531
0.154926155094
0.154936779755
0.154956918636
0.154984849855
0.155019294667
0.155056346743
0.155097240575
0.155145105226
0.155201999246
0.155276569615
0.155375026785
0.155490197523
0.155612416489
0.155739313553
0.155873361255
0.156019010911
0.156178117679
0.156348379605
0.156527016073
0.156717362035
0.156923990552
0.157150305725
0.157397373882
0.157664850906
0.157953013236
0.15825800357
0.158579186581
0.158914541231
0.159265563796
0.159630400061
0.160003898348
0.160376324917
0.16073365481
0.161087938726
0.161448091014
0.161815517462
0.162189020647
0.162567222173
0.162949930249
0.163338605749
0.163734220995
0.164135248998
0.164538201089
0.164939045922
0.165334014035
0.165719866994
0.166093820552
0.166453257293
0.166795343338
0.167116674019
0.167413195042
0.167680402647
0.167913357916
0.16810722294
0.168259741049
0.168372481479
0.168449415659
0.168495417876
0.168515453252
0.168514622728
0.168497043722
0.168464617
0.168409965092
0.168312303549
0.168165680098
0.167987725176
0.167800864021
0.167628858046
0.16747987673
0.167339042383
0.167193122854
0.167053832946
0.166935157149
0.166837753003
0.166748856011
0.166668858707
0.1666205565
0.166599459113
0.154860507509
0.154864637278
0.154879841978
0.154895890586
0.154912866257
0.154940872496
0.154977314737
0.155015739262
0.15505947728
0.155109658428
0.155170405154
0.155248275373
0.155354462513
0.155469819949
0.155588268357
0.155707658811
0.155835593703
0.155979590145
0.156137772933
0.15630317815
0.156478911747
0.156669757565
0.15687767817
0.157105356908
0.157354729524
0.157626881112
0.157916259364
0.158225572649
0.158551754576
0.158895363422
0.159251441486
0.159616854799
0.159991743797
0.160357881577
0.160712788154
0.161065465995
0.161427152004
0.161798330134
0.162176807929
0.162560934262
0.162950398891
0.163345850807
0.163747512647
0.164154018587
0.164562469665
0.164969244234
0.165370758401
0.16576388765
0.166145977995
0.166514507895
0.166866630174
0.167198811188
0.167506637137
0.167784805839
0.168027473402
0.168229619292
0.168389183268
0.168507597224
0.168588327465
0.168635446767
0.168653318896
0.168647073814
0.168620953141
0.168574086957
0.168511443048
0.168399061082
0.168230643398
0.168033173107
0.167827570075
0.167635616343
0.167462680157
0.16729303865
0.167123104612
0.166968974866
0.166835505703
0.166716914074
0.166603050639
0.166509758206
0.16645503296
0.16642789297
0.154793192185
0.154801606567
0.154819422582
0.154843332673
0.154862106435
0.154890777957
0.154926170409
0.154966602042
0.155014063857
0.155062425123
0.155130402118
0.155220038324
0.15532489981
0.155437872146
0.155549877753
0.155662374867
0.155789854904
0.155935405312
0.156089087412
0.156249790552
0.156423452966
0.156614506241
0.156823776242
0.157054236799
0.157307080191
0.157582376027
0.157876857417
0.158185869644
0.158521107796
0.158876056667
0.159233376002
0.159595513447
0.159968796131
0.160330712387
0.16068204115
0.161038268011
0.161403998178
0.161779632414
0.162163536511
0.162554068454
0.162950686168
0.163353522952
0.16376230052
0.164175603934
0.164590842061
0.165004725544
0.165413930019
0.16581557827
0.16620727614
0.166586720418
0.166951169935
0.1672969924
0.167619349135
0.167912194009
0.16816902178
0.16838455305
0.168556372477
0.168684885472
0.168771893004
0.168819848611
0.168832871586
0.168816531338
0.168774843391
0.168710896613
0.168631676863
0.168512146142
0.168319425003
0.168092301216
0.167858763075
0.16763588042
0.167427311855
0.167223909635
0.167032170678
0.166860054303
0.166703614105
0.166553904533
0.166416040499
0.166308566396
0.166247542795
0.166218567497
0.154719551372
0.154730720656
0.154748973708
0.154768902864
0.154793476728
0.15482955202
0.154864666074
0.154906277317
0.154960101208
0.155013102501
0.155078775034
0.155176605189
0.1552841232
0.155392206212
0.155498719413
0.155610954315
0.155738134875
0.155881335568
0.15603086764
0.156189108948
0.156361344144
0.156551535798
0.156760603056
0.156992744218
0.157254311797
0.157531243787
0.157831315113
0.158149809763
0.15848697109
0.158842701874
0.159206731518
0.159576188902
0.159935330842
0.160290704468
0.160645808109
0.161007344811
0.161378281665
0.161759134956
0.162148966915
0.162546421757
0.162950771109
0.163361730413
0.163778647696
0.164199980172
0.164623250837
0.165045417366
0.165463476432
0.16587492286
0.166277747298
0.166670005933
0.167049224761
0.167411833985
0.167752730662
0.168065365159
0.168342729442
0.168578905742
0.168769988481
0.168913478907
0.169007741002
0.169054024775
0.169059118218
0.169030683542
0.16897189291
0.168883627567
0.168769457867
0.168630249237
0.168429843955
0.168165144597
0.167890158737
0.167622517958
0.167368125861
0.167131207231
0.166919134387
0.166725442775
0.166537089541
0.166350030939
0.166186723903
0.166064448387
0.165993894437
0.165963333903
0.154638561004
0.154651743871
0.154673086876
0.154692482522
0.154718707528
0.154755405388
0.154791827737
0.154833500393
0.154886441482
0.154953725006
0.155023959853
0.155121836231
0.155230136601
0.155334226261
0.155435388231
0.155550319317
0.155681096348
0.155819393329
0.155963903096
0.15612018964
0.156292368974
0.156482735464
0.156692016132
0.156922854638
0.157191450539
0.157477810193
0.157773735736
0.158101577386
0.158444667496
0.158805992283
0.159172953462
0.159539250052
0.159896370241
0.160246905907
0.160605075213
0.160972594023
0.161349637316
0.161736535831
0.16213290081
0.162537824303
0.162950571869
0.163370513247
0.163796624742
0.164227172202
0.164659690869
0.165091317816
0.165519396435
0.165941894709
0.166357319668
0.166764249309
0.167160730748
0.167543596191
0.16790792168
0.168247122147
0.168553819615
0.168820704422
0.169040035179
0.169202544359
0.16930155265
0.169342369353
0.169340490467
0.169303871839
0.169227901412
0.169106784001
0.168942820234
0.168747488053
0.168526362484
0.168251293411
0.167914491233
0.167583071755
0.167277359586
0.167010811393
0.166781748451
0.166566064675
0.166337648857
0.166102186353
0.165903257309
0.165759764264
0.165670881427
0.165631299134
0.154546775842
0.154559507732
0.154582542323
0.154606461015
0.154639735855
0.154671211505
0.154707775281
0.154751324644
0.154797367149
0.154871580892
0.154953928881
0.155052296616
0.155160750733
0.155264481952
0.155364608146
0.155479902526
0.15561219704
0.155747383658
0.155888214331
0.156041728163
0.156213551228
0.156405724836
0.156619936721
0.156850928898
0.157114104294
0.157415670687
0.157720932132
0.158048612067
0.158393623538
0.158748220674
0.15912434091
0.159492777121
0.159846121433
0.160197501962
0.160560214413
0.160933959817
0.161317735391
0.161711534337
0.162115181049
0.162528176341
0.162950017392
0.16337987159
0.163816298527
0.164257269987
0.164700246891
0.165142510945
0.165581761903
0.166016486946
0.166445800173
0.166869010156
0.167285047389
0.167691734969
0.168085150247
0.168459546481
0.168807532582
0.169118955555
0.169377163972
0.169559251817
0.169658125119
0.16969285826
0.169694151881
0.169661443778
0.169571457459
0.169408818648
0.169179211154
0.16889950798
0.168596107847
0.168283468556
0.167921750811
0.167504977449
0.167141337781
0.166850842556
0.166618021053
0.166391918204
0.166114219029
0.165796152162
0.16553720532
0.165359976864
0.165243751275
0.165188308711
0.15444166413
0.15445161392
0.154469099853
0.154500078119
0.15454273362
0.154573655198
0.154610741814
0.154659075618
0.154703650265
0.154774375291
0.154865968731
0.154966965726
0.155074702492
0.155179534412
0.155285441824
0.155402671542
0.155533285046
0.155665317944
0.155803835068
0.155954705881
0.156123432264
0.156313599081
0.156537149198
0.156780556947
0.157038541732
0.157340617974
0.157655236586
0.15797977619
0.158337477713
0.158698760695
0.159065618155
0.15942747727
0.159781400514
0.160141003974
0.160510430443
0.160890945261
0.161282112538
0.161683718924
0.162095598359
0.162517421796
0.162949055785
0.163389791034
0.163837765816
0.164290448978
0.1647451327
0.165199229463
0.165650781091
0.16609874873
0.166542883235
0.166983417024
0.167420642054
0.167854243064
0.168282710912
0.168702824507
0.16910791007
0.169482082825
0.169790411594
0.169991394235
0.17008839519
0.170119947954
0.170149988998
0.170148260931
0.170053567973
0.169837034742
0.169516272459
0.16912076608
0.168686692514
0.168266760245
0.167827664716
0.167346743558
0.166928697463
0.166625979278
0.166427203941
0.166236497074
0.165892941046
0.165400786668
0.165039521006
0.164829955216
0.164688837933
0.164622665385
0.154322896435
0.154330229244
0.154339545633
0.154374574445
0.154417490341
0.154454794583
0.15449508045
0.154548740958
0.154599388101
0.154668643604
0.154764025439
0.154866517121
0.154972912056
0.155075397168
0.155188937239
0.155314641565
0.15544347144
0.155572777923
0.155709987037
0.155859623797
0.156025056054
0.15620932411
0.156432463336
0.156697637717
0.156962725035
0.157252513323
0.157580871869
0.157912510192
0.158261072536
0.1586277225
0.158996165509
0.159355047531
0.159710182904
0.160076920619
0.160454384645
0.160842795419
0.16124214227
0.161652359368
0.162073602193
0.162505476845
0.162947840447
0.163400367846
0.163861128616
0.164326967613
0.16479474287
0.165261940765
0.16572689491
0.166188906594
0.166648216947
0.167106095656
0.167564711281
0.168026813581
0.168495501846
0.168972827046
0.169454275205
0.169913476886
0.170288549374
0.170516074183
0.17061497225
0.170636872053
0.170749665499
0.170843159179
0.170768255908
0.170479838256
0.170025470683
0.16945720194
0.168823830512
0.168207428403
0.167613772186
0.167031121388
0.166585910916
0.166292049306
0.166219761355
0.166200807941
0.165772305145
0.164840457191
0.164315348782
0.164138074105
0.163981594574
0.163916838188
0.154191419829
0.154199920393
0.154213967987
0.15423877372
0.154276509997
0.15431794443
0.154362393908
0.154418542744
0.154479516758
0.154550065245
0.154648025214
0.1547516639
0.154857777506
0.154958898806
0.155073315137
0.155206828438
0.155338100043
0.155467957174
0.155605228708
0.155754800101
0.155918875212
0.156098511999
0.156317010356
0.156593253192
0.156874157759
0.157161928534
0.157495103296
0.157835659109
0.158179990737
0.15854497924
0.158905983623
0.159263626677
0.159629073817
0.160004915305
0.160391167766
0.160788463555
0.161197264785
0.161617155744
0.162048499877
0.162491646285
0.162946285912
0.163411917843
0.163886744379
0.164367236426
0.164849683424
0.165331432396
0.16581096947
0.166287568677
0.166761587641
0.167235219124
0.167712956009
0.16820201938
0.168712881363
0.169256934861
0.169833459824
0.170400880829
0.170891336266
0.171207008258
0.171327929791
0.171274829571
0.171647684251
0.171972206263
0.171851633296
0.171335745274
0.170629515524
0.169871089463
0.169041267789
0.168155452721
0.167319658068
0.166614931547
0.165952669314
0.165591373627
0.165846595254
0.166498800807
0.165955749749
0.163947543784
0.163205773477
0.163300674091
0.163083515049
0.163036258934
0.1540436955
0.154053274779
0.154076213085
0.154091784547
0.154123342294
0.154165881308
0.15421366841
0.15427377386
0.154347309449
0.154418440215
0.154517609701
0.154622553291
0.154729580245
0.154832359763
0.154947741288
0.155084302088
0.155218164903
0.155350372517
0.155489016169
0.155639025166
0.155803059787
0.155981621073
0.156192299986
0.156465164581
0.156770896509
0.157067397222
0.157388830052
0.157747425737
0.15810168163
0.158448462785
0.158802466291
0.159164490898
0.159538252502
0.159923550594
0.160319753094
0.16072714151
0.161146170815
0.161577140353
0.162020087514
0.162475509405
0.162943870059
0.163424460778
0.163915136302
0.164412022374
0.164910913104
0.165408951006
0.16590443787
0.166396100809
0.166883448617
0.167368858685
0.167859667509
0.168368991665
0.168916825967
0.169527975431
0.170203864977
0.170920372756
0.171754615051
0.172283574604
0.172298967828
0.171249191058
0.171150116966
0.171420849824
0.171379912007
0.170922088099
0.17024576122
0.1694834822
0.168681862298
0.167882383907
0.167123949686
0.1664559636
0.165998107847
0.166014113002
0.166755180906
0.168397456853
0.168337596783
0.161450769717
0.160582217983
0.1623195799
0.161899497348
0.161979080761
0.153876589264
0.15388540079
0.153906551838
0.153923990575
0.15395307228
0.153996999492
0.154046425848
0.154106176675
0.154191662416
0.154271369891
0.154371256649
0.154478198075
0.154587556208
0.154694469289
0.154812418609
0.154949899374
0.155085486547
0.15522063782
0.155361403656
0.155512358159
0.155676466513
0.155855529562
0.156061471957
0.15632692429
0.15664773362
0.156961508149
0.157275524623
0.157627773538
0.157993116188
0.15834471194
0.158693956616
0.159057498587
0.159438139198
0.159833037234
0.160239719331
0.160657790976
0.1610881595
0.161531152811
0.161987219165
0.162456653857
0.162940266218
0.163437804756
0.163946736546
0.164462354559
0.164979788216
0.165496237569
0.16600999129
0.166517800941
0.16701568646
0.167505276952
0.167998608845
0.1685144833
0.169080985219
0.169732541143
0.170448135354
0.171176030344
0.171503132949
0.171847458034
0.171979006888
0.171693735199
0.171326976552
0.171256156416
0.171060186221
0.170574353573
0.16989646995
0.169127826779
0.168316256911
0.167497091473
0.166721217095
0.16603498902
0.165527252984
0.165327986648
0.165428562204
0.165472848106
0.163479246062
0.161747537531
0.163415055582
0.164643673993
0.160298173258
0.160694443152
0.153692144858
0.153700065686
0.153721759017
0.153739316195
0.153768457984
0.153812684611
0.153863279752
0.153919901142
0.154006721286
0.154100348803
0.154205576521
0.154315990109
0.15442923701
0.154543854166
0.154664876743
0.154803080291
0.154940287812
0.155078938841
0.155222328388
0.155374784089
0.155539275143
0.155718293726
0.155921183281
0.156177956943
0.156498792569
0.15683991262
0.15716308074
0.157502817954
0.157862804392
0.158215329208
0.15856699531
0.158937910322
0.159327068051
0.159731775993
0.160149592859
0.160579620018
0.161022199989
0.161478430971
0.161948859982
0.162434151508
0.16293497835
0.163451468344
0.163981537544
0.164519557095
0.16505893894
0.165596756776
0.166131657299
0.166657116612
0.167161854461
0.167644795716
0.168125570741
0.168628233956
0.169181886337
0.169820724608
0.170429897376
0.170854338346
0.171286806033
0.171537135963
0.171587496903
0.171348161574
0.17097761963
0.170690801899
0.170340787028
0.169804475835
0.16910377253
0.168302779097
0.167448267999
0.16657793999
0.16573575186
0.164963462132
0.16429333059
0.163773327163
0.163361446865
0.162858850106
0.161902002838
0.161280033773
0.161677247476
0.16169629456
0.160877325459
0.161416789193
0.15349254235
0.153498965169
0.153516518213
0.153536469286
0.153569975545
0.153614417343
0.153667562198
0.15372294345
0.153808485019
0.153910368813
0.154020389106
0.154133827717
0.154249590022
0.154374665514
0.154502050561
0.154641000824
0.154780409254
0.154924014659
0.155070923102
0.155225559643
0.155390958932
0.155569694548
0.15577024028
0.156019937639
0.156336348754
0.156694604727
0.157037633699
0.157373250552
0.1577216639
0.158069973207
0.158426273243
0.158804372522
0.159202357046
0.159616866848
0.160046500197
0.160490201246
0.160946947319
0.161417449771
0.1619038995
0.162406650602
0.162926823383
0.163465355491
0.16402030167
0.164585045543
0.165149932729
0.16571389173
0.166280812136
0.166834349859
0.167339037402
0.167794934612
0.168239561768
0.168700520274
0.169199609317
0.169754729082
0.170145879736
0.170569056632
0.170890960512
0.171039368385
0.171010359478
0.17078127767
0.170415686717
0.170005285466
0.169518305118
0.168893365006
0.168129193939
0.16726348636
0.166334840588
0.165376134823
0.164419864326
0.163498968031
0.162605056734
0.161747770974
0.16092883764
0.160077168541
0.159095556947
0.158167215449
0.157775684944
0.158120285994
0.159104920184
0.160688302336
0.153280444639
0.153285643403
0.153298101227
0.153320974456
0.153358223789
0.153402519188
0.153457473495
0.153515785964
0.153597693364
0.153703688059
0.15381671989
0.153932139559
0.15404810699
0.154178570155
0.154317756214
0.154460017095
0.154602305349
0.154751653273
0.154904576231
0.155062966614
0.155230544961
0.155408907606
0.155607671836
0.155851438596
0.156158444715
0.156514993447
0.15687960199
0.157226439452
0.157571903001
0.157917918409
0.158273495991
0.158656976046
0.159063690066
0.15948612528
0.159928991971
0.160387809018
0.160858872922
0.161345575009
0.161850045613
0.162373105716
0.162915188564
0.163477751383
0.164060560171
0.164659893068
0.165269329921
0.165884616857
0.166496182252
0.167068427016
0.167561042801
0.16796864947
0.168345436576
0.168724677525
0.169195900322
0.169508904041
0.169883480425
0.17018901693
0.170376205505
0.170417512541
0.170297434238
0.170009137598
0.169580159691
0.169054166808
0.168432664738
0.167691751808
0.16682763393
0.165860710217
0.164817731114
0.163723144462
0.162599015071
0.161466589971
0.160301373144
0.159069548877
0.157773583527
0.15637709326
0.15482461714
0.153231593879
0.151934559262
0.151194284466
0.151047103177
0.151844012547
0.153056710028
0.153061559423
0.153072394187
0.153098747461
0.153135750382
0.153178002193
0.153230593216
0.153293683971
0.153371792407
0.153479546633
0.153594849763
0.153712182827
0.153829413031
0.153960396377
0.154109490398
0.154258408027
0.154405340725
0.154559606366
0.154719248713
0.154883834066
0.155056237572
0.155235046963
0.155432348231
0.155671903259
0.155969855525
0.156319869966
0.156693544516
0.157054387212
0.15739700817
0.157741561834
0.15810453317
0.158491130507
0.158904395659
0.159338123335
0.159794946089
0.160268764437
0.160755638826
0.161260131801
0.161784351812
0.162329685647
0.162896871498
0.163487960427
0.164107470636
0.164760325972
0.165437354927
0.166112980851
0.166770857357
0.167379941751
0.167892952086
0.16822199388
0.168494834537
0.168815161223
0.169018611414
0.169301741389
0.169541525377
0.169694638992
0.169740416412
0.169654002215
0.169419034869
0.169032220453
0.168506724238
0.167863918857
0.167110658331
0.166239945354
0.165250106195
0.164151605954
0.162960165071
0.161689987344
0.160350808492
0.158944357342
0.157459371664
0.155806857279
0.153931114748
0.151806042273
0.149350589955
0.146526220424
0.143357201584
0.139881380782
0.136406402146
0.138817427457
0.152818715825
0.152823649088
0.152834965381
0.152865615981
0.152901752993
0.152941437433
0.15298952331
0.153055603839
0.153128515572
0.15323644799
0.1533540768
0.153473494307
0.153593050073
0.153726048558
0.153880452942
0.154036219217
0.154189391264
0.154349014436
0.154513973932
0.15468525982
0.154865087914
0.155046375037
0.155242269256
0.15547883595
0.155769141926
0.156110851737
0.156485763106
0.156855046445
0.157207759461
0.157552553079
0.157920806443
0.158313694595
0.15872974084
0.159167078283
0.159634433126
0.160127532254
0.160634228034
0.161158926686
0.161704034521
0.162273045416
0.162868733318
0.163494415551
0.164164841523
0.164888905144
0.165634689053
0.16637472023
0.167114127747
0.167850253811
0.168498372369
0.16865661249
0.168666104954
0.168743152772
0.168895838322
0.169025054668
0.16909751226
0.169091853794
0.168983478558
0.168750533143
0.168379601566
0.167866944724
0.167218016464
0.166442970538
0.165547210119
0.164529425558
0.163388633797
0.162128501689
0.160754858628
0.159271153348
0.157674925215
0.155953973214
0.15408644102
0.151959230492
0.149427760571
0.146411322551
0.142730183279
0.138043943976
0.131686783706
0.12208239596
0.104261073363
0.0609444475153
0.152560611273
0.152565532386
0.15257912204
0.152614787078
0.152650709724
0.152688518378
0.152734313204
0.152800273001
0.152867613085
0.15297356372
0.153093271408
0.153214745634
0.153336709893
0.153471767211
0.153629475245
0.15379146702
0.153952932302
0.154118668884
0.154288028489
0.15446520065
0.154653843658
0.154840592535
0.15503495589
0.155268917329
0.15555364234
0.155886069209
0.156255741347
0.156622898255
0.156989181228
0.157348661307
0.1577186612
0.158111641515
0.158535771278
0.158985008009
0.159454945512
0.159959747065
0.16048826568
0.161035658833
0.161606005281
0.162200958306
0.162826010741
0.163496731623
0.164237755772
0.165035794571
0.165844141925
0.166670644102
0.167586706847
0.16866976797
0.169990621618
0.169137277453
0.168836454507
0.168736863986
0.168713316716
0.168663150215
0.168559285969
0.168379588169
0.168100837006
0.167704780601
0.167179714915
0.166520553502
0.165727975088
0.164805644395
0.163755690494
0.162576774044
0.161266152151
0.159821499445
0.158239592691
0.156512956118
0.154625962456
0.152550000371
0.150236170062
0.147607427343
0.14443722936
0.140476916711
0.135468263101
0.128850734779
0.11950426032
0.105192183903
0.081231467183
0.0417244174322
0.152274214375
0.152279127051
0.152294929936
0.152335554357
0.152371016682
0.152410193601
0.152455431339
0.152519103916
0.152583914377
0.15268914828
0.152811028703
0.152934430761
0.153058630049
0.15319521108
0.153354429834
0.153520348833
0.153691987806
0.153865308451
0.154039304602
0.154221638175
0.154418409567
0.154614766857
0.154808908242
0.155038966649
0.155320061099
0.155644539638
0.156007000294
0.156368583303
0.156735529222
0.157113636145
0.157500387139
0.157896785607
0.15831252634
0.158767677861
0.159254289193
0.159769832509
0.16031592323
0.160886232978
0.161482495449
0.162107132668
0.162770371132
0.163503933458
0.164321991287
0.165180388731
0.166056067946
0.167012654651
0.168205953349
0.16987725119
0.169741040779
0.169542329841
0.168993953079
0.168666253528
0.168440445575
0.16819987592
0.167907937364
0.167542371593
0.167082561249
0.16651238446
0.165820789751
0.1650013459
0.164051319602
0.162969807925
0.161755193754
0.160403548068
0.158908704071
0.15726245474
0.155453246006
0.153463310811
0.151264727874
0.148814223212
0.146045593737
0.142862001478
0.139068287225
0.134296632213
0.128150571516
0.120068940725
0.109003884599
0.0932064038657
0.0695592864747
0.0372498913588
0.151952719208
0.151959505606
0.151976128976
0.152016012844
0.152054347998
0.152100025285
0.152148457045
0.152212612259
0.1522817349
0.152382284879
0.152505657656
0.152630931509
0.152757343333
0.152895138417
0.153054638734
0.153220831545
0.153398686504
0.153582875348
0.153764258437
0.153952971985
0.154155824482
0.154364678818
0.154566697654
0.154788820348
0.155066236204
0.155384782933
0.155739942001
0.156096737817
0.156458668505
0.156845262946
0.157249654732
0.157661954009
0.158079426389
0.15852884589
0.159019137742
0.159549974091
0.160115337731
0.160709657385
0.161331345196
0.161988700702
0.162708149923
0.163520061675
0.164405821387
0.165321408703
0.166276746916
0.167364148472
0.168908642723
0.169386261964
0.169574283221
0.169245071328
0.168782809186
0.16838403275
0.168000626395
0.167583105459
0.167108460156
0.166558454273
0.165916312872
0.165168523382
0.164304935166
0.163318219763
0.162203110094
0.160955133496
0.159568981195
0.158037170043
0.156349326858
0.154491480549
0.152444502542
0.150181358754
0.147663175172
0.144833840806
0.141612422764
0.137882150107
0.133478479156
0.128071155296
0.121136122545
0.11206872696
0.100064334935
0.0838468933635
0.0611381288312
0.0326370888742
0.151600702017
0.151610857949
0.151627407311
0.151660781956
0.151705039436
0.151757523543
0.151811848586
0.15188064614
0.151959444364
0.152054378886
0.152176429561
0.152302842093
0.152431517104
0.15257069691
0.152730684806
0.152897566554
0.153075984411
0.153269410658
0.153461030809
0.153658544242
0.153867409689
0.1540882189
0.154307740259
0.154532515747
0.154796862935
0.155108220307
0.155456097935
0.155808624391
0.156163869726
0.156549878415
0.156962628164
0.157396157128
0.157827085775
0.158273485641
0.158760354056
0.15929594763
0.159877267366